   5   5   1   0
  0.3981483E+02  0.3032300E-09  0.3032300E-09  0.2500000E-08  0.5000000E-15
  1.000000000000000E-004
  CAR 
 Si_ML                                   
      2.43807021    -23.06235821 3000     -4.46634722      1.00000000
    -23.062  0.0000E+00  0.0000E+00  0.0000E+00  0.0000E+00
    -23.054  0.0000E+00  0.0000E+00  0.0000E+00  0.0000E+00
    -23.045  0.0000E+00  0.0000E+00  0.0000E+00  0.0000E+00
    -23.037  0.0000E+00  0.0000E+00  0.0000E+00  0.0000E+00
    -23.028  0.0000E+00  0.0000E+00  0.0000E+00  0.0000E+00
    -23.020  0.0000E+00  0.0000E+00  0.0000E+00  0.0000E+00
    -23.011  0.0000E+00  0.0000E+00  0.0000E+00  0.0000E+00
    -23.003  0.0000E+00  0.0000E+00  0.0000E+00  0.0000E+00
    -22.994  0.0000E+00  0.0000E+00  0.0000E+00  0.0000E+00
    -22.986  0.0000E+00  0.0000E+00  0.0000E+00  0.0000E+00
    -22.977  0.0000E+00  0.0000E+00  0.0000E+00  0.0000E+00
    -22.969  0.0000E+00  0.0000E+00  0.0000E+00  0.0000E+00
    -22.960  0.0000E+00  0.0000E+00  0.0000E+00  0.0000E+00
    -22.952  0.0000E+00  0.0000E+00  0.0000E+00  0.0000E+00
    -22.943  0.0000E+00  0.0000E+00  0.0000E+00  0.0000E+00
    -22.935  0.0000E+00  0.0000E+00  0.0000E+00  0.0000E+00
    -22.926  0.0000E+00  0.0000E+00  0.0000E+00  0.0000E+00
    -22.918  0.0000E+00  0.0000E+00  0.0000E+00  0.0000E+00
    -22.909  0.0000E+00  0.0000E+00  0.0000E+00  0.0000E+00
    -22.901  0.0000E+00  0.0000E+00  0.0000E+00  0.0000E+00
    -22.892  0.0000E+00  0.0000E+00  0.0000E+00  0.0000E+00
    -22.884  0.0000E+00  0.0000E+00  0.0000E+00  0.0000E+00
    -22.875  0.0000E+00  0.0000E+00  0.0000E+00  0.0000E+00
    -22.867  0.0000E+00  0.0000E+00  0.0000E+00  0.0000E+00
    -22.858  0.0000E+00  0.0000E+00  0.0000E+00  0.0000E+00
    -22.850  0.0000E+00  0.0000E+00  0.0000E+00  0.0000E+00
    -22.841  0.0000E+00  0.0000E+00  0.0000E+00  0.0000E+00
    -22.833  0.0000E+00  0.0000E+00  0.0000E+00  0.0000E+00
    -22.824  0.0000E+00  0.0000E+00  0.0000E+00  0.0000E+00
    -22.816  0.0000E+00  0.0000E+00  0.0000E+00  0.0000E+00
    -22.807  0.0000E+00  0.0000E+00  0.0000E+00  0.0000E+00
    -22.799  0.0000E+00  0.0000E+00  0.0000E+00  0.0000E+00
    -22.790  0.0000E+00  0.0000E+00  0.0000E+00  0.0000E+00
    -22.782  0.0000E+00  0.0000E+00  0.0000E+00  0.0000E+00
    -22.773  0.0000E+00  0.0000E+00  0.0000E+00  0.0000E+00
    -22.765  0.0000E+00  0.0000E+00  0.0000E+00  0.0000E+00
    -22.756  0.0000E+00  0.0000E+00  0.0000E+00  0.0000E+00
    -22.748  0.0000E+00  0.0000E+00  0.0000E+00  0.0000E+00
    -22.739  0.0000E+00  0.0000E+00  0.0000E+00  0.0000E+00
    -22.731  0.0000E+00  0.0000E+00  0.0000E+00  0.0000E+00
    -22.722  0.0000E+00  0.0000E+00  0.0000E+00  0.0000E+00
    -22.714  0.0000E+00  0.0000E+00  0.0000E+00  0.0000E+00
    -22.705  0.0000E+00  0.0000E+00  0.0000E+00  0.0000E+00
    -22.697  0.0000E+00  0.0000E+00  0.0000E+00  0.0000E+00
    -22.688  0.0000E+00  0.0000E+00  0.0000E+00  0.0000E+00
    -22.680  0.0000E+00  0.0000E+00  0.0000E+00  0.0000E+00
    -22.671  0.0000E+00  0.0000E+00  0.0000E+00  0.0000E+00
    -22.663  0.0000E+00  0.0000E+00  0.0000E+00  0.0000E+00
    -22.654  0.0000E+00  0.0000E+00  0.0000E+00  0.0000E+00
    -22.646  0.0000E+00  0.0000E+00  0.0000E+00  0.0000E+00
    -22.637  0.0000E+00  0.0000E+00  0.0000E+00  0.0000E+00
    -22.629  0.0000E+00  0.0000E+00  0.0000E+00  0.0000E+00
    -22.620  0.0000E+00  0.0000E+00  0.0000E+00  0.0000E+00
    -22.612  0.0000E+00  0.0000E+00  0.0000E+00  0.0000E+00
    -22.603  0.0000E+00  0.0000E+00  0.0000E+00  0.0000E+00
    -22.595  0.0000E+00  0.0000E+00  0.0000E+00  0.0000E+00
    -22.586  0.0000E+00  0.0000E+00  0.0000E+00  0.0000E+00
    -22.578  0.0000E+00  0.0000E+00  0.0000E+00  0.0000E+00
    -22.569  0.0000E+00  0.0000E+00  0.0000E+00  0.0000E+00
    -22.561  0.0000E+00  0.0000E+00  0.0000E+00  0.0000E+00
    -22.552  0.0000E+00  0.0000E+00  0.0000E+00  0.0000E+00
    -22.544  0.0000E+00  0.0000E+00  0.0000E+00  0.0000E+00
    -22.535  0.0000E+00  0.0000E+00  0.0000E+00  0.0000E+00
    -22.527  0.0000E+00  0.0000E+00  0.0000E+00  0.0000E+00
    -22.518  0.0000E+00  0.0000E+00  0.0000E+00  0.0000E+00
    -22.510  0.0000E+00  0.0000E+00  0.0000E+00  0.0000E+00
    -22.501  0.0000E+00  0.0000E+00  0.0000E+00  0.0000E+00
    -22.493  0.0000E+00  0.0000E+00  0.0000E+00  0.0000E+00
    -22.484  0.0000E+00  0.0000E+00  0.0000E+00  0.0000E+00
    -22.476  0.0000E+00  0.0000E+00  0.0000E+00  0.0000E+00
    -22.467  0.0000E+00  0.0000E+00  0.0000E+00  0.0000E+00
    -22.459  0.0000E+00  0.0000E+00  0.0000E+00  0.0000E+00
    -22.450  0.0000E+00  0.0000E+00  0.0000E+00  0.0000E+00
    -22.442  0.0000E+00  0.0000E+00  0.0000E+00  0.0000E+00
    -22.433  0.0000E+00  0.0000E+00  0.0000E+00  0.0000E+00
    -22.425  0.0000E+00  0.0000E+00  0.0000E+00  0.0000E+00
    -22.416  0.0000E+00  0.0000E+00  0.0000E+00  0.0000E+00
    -22.408  0.0000E+00  0.0000E+00  0.0000E+00  0.0000E+00
    -22.399  0.0000E+00  0.0000E+00  0.0000E+00  0.0000E+00
    -22.391  0.0000E+00  0.0000E+00  0.0000E+00  0.0000E+00
    -22.382  0.0000E+00  0.0000E+00  0.0000E+00  0.0000E+00
    -22.374  0.0000E+00  0.0000E+00  0.0000E+00  0.0000E+00
    -22.365  0.0000E+00  0.0000E+00  0.0000E+00  0.0000E+00
    -22.357  0.0000E+00  0.0000E+00  0.0000E+00  0.0000E+00
    -22.348  0.0000E+00  0.0000E+00  0.0000E+00  0.0000E+00
    -22.340  0.0000E+00  0.0000E+00  0.0000E+00  0.0000E+00
    -22.331  0.0000E+00  0.0000E+00  0.0000E+00  0.0000E+00
    -22.323  0.0000E+00  0.0000E+00  0.0000E+00  0.0000E+00
    -22.314  0.0000E+00  0.0000E+00  0.0000E+00  0.0000E+00
    -22.306  0.0000E+00  0.0000E+00  0.0000E+00  0.0000E+00
    -22.297  0.0000E+00  0.0000E+00  0.0000E+00  0.0000E+00
    -22.289  0.0000E+00  0.0000E+00  0.0000E+00  0.0000E+00
    -22.280  0.0000E+00  0.0000E+00  0.0000E+00  0.0000E+00
    -22.272  0.0000E+00  0.0000E+00  0.0000E+00  0.0000E+00
    -22.263  0.0000E+00  0.0000E+00  0.0000E+00  0.0000E+00
    -22.255  0.0000E+00  0.0000E+00  0.0000E+00  0.0000E+00
    -22.246  0.0000E+00  0.0000E+00  0.0000E+00  0.0000E+00
    -22.238  0.0000E+00  0.0000E+00  0.0000E+00  0.0000E+00
    -22.229  0.0000E+00  0.0000E+00  0.0000E+00  0.0000E+00
    -22.221  0.0000E+00  0.0000E+00  0.0000E+00  0.0000E+00
    -22.212  0.0000E+00  0.0000E+00  0.0000E+00  0.0000E+00
    -22.204  0.0000E+00  0.0000E+00  0.0000E+00  0.0000E+00
    -22.195  0.4498E-16  0.4498E-16  0.3825E-18  0.3825E-18
    -22.187  0.3936E-15  0.3936E-15  0.3729E-17  0.3729E-17
    -22.178  0.2575E-14  0.2575E-14  0.2563E-16  0.2563E-16
    -22.170  0.1712E-13  0.1712E-13  0.1712E-15  0.1712E-15
    -22.161  0.1051E-12  0.1051E-12  0.1065E-14  0.1065E-14
    -22.153  0.6113E-12  0.6113E-12  0.6263E-14  0.6263E-14
    -22.144  0.3358E-11  0.3358E-11  0.3482E-13  0.3482E-13
    -22.136  0.1743E-10  0.1743E-10  0.1830E-12  0.1830E-12
    -22.127  0.8549E-10  0.8549E-10  0.9099E-12  0.9099E-12
    -22.119  0.3962E-09  0.3962E-09  0.4279E-11  0.4279E-11
    -22.110  0.1736E-08  0.1736E-08  0.1904E-10  0.1904E-10
    -22.102  0.7187E-08  0.7187E-08  0.8015E-10  0.8015E-10
    -22.093  0.2813E-07  0.2813E-07  0.3194E-09  0.3194E-09
    -22.085  0.1041E-06  0.1041E-06  0.1205E-08  0.1205E-08
    -22.076  0.3646E-06  0.3646E-06  0.4305E-08  0.4305E-08
    -22.068  0.1208E-05  0.1208E-05  0.1457E-07  0.1457E-07
    -22.059  0.3785E-05  0.3785E-05  0.4676E-07  0.4676E-07
    -22.051  0.1123E-04  0.1123E-04  0.1422E-06  0.1422E-06
    -22.042  0.3154E-04  0.3154E-04  0.4104E-06  0.4104E-06
    -22.033  0.8395E-04  0.8395E-04  0.1124E-05  0.1124E-05
    -22.025  0.2117E-03  0.2117E-03  0.2925E-05  0.2925E-05
    -22.016  0.5065E-03  0.5065E-03  0.7231E-05  0.7231E-05
    -22.008  0.1149E-02  0.1149E-02  0.1700E-04  0.1700E-04
    -21.999  0.2477E-02  0.2477E-02  0.3807E-04  0.3807E-04
    -21.991  0.5072E-02  0.5072E-02  0.8119E-04  0.8119E-04
    -21.982  0.9878E-02  0.9878E-02  0.1652E-03  0.1652E-03
    -21.974  0.1831E-01  0.1831E-01  0.3209E-03  0.3209E-03
    -21.965  0.3236E-01  0.3236E-01  0.5961E-03  0.5961E-03
    -21.957  0.5456E-01  0.5456E-01  0.1060E-02  0.1060E-02
    -21.948  0.8791E-01  0.8791E-01  0.1807E-02  0.1807E-02
    -21.940  0.1355E+00  0.1355E+00  0.2960E-02  0.2960E-02
    -21.931  0.2003E+00  0.2003E+00  0.4663E-02  0.4663E-02
    -21.923  0.2843E+00  0.2843E+00  0.7080E-02  0.7080E-02
    -21.914  0.3883E+00  0.3883E+00  0.1038E-01  0.1038E-01
    -21.906  0.5117E+00  0.5117E+00  0.1473E-01  0.1473E-01
    -21.897  0.6521E+00  0.6521E+00  0.2028E-01  0.2028E-01
    -21.889  0.8063E+00  0.8063E+00  0.2713E-01  0.2713E-01
    -21.880  0.9702E+00  0.9702E+00  0.3538E-01  0.3538E-01
    -21.872  0.1141E+01  0.1141E+01  0.4508E-01  0.4508E-01
    -21.863  0.1316E+01  0.1316E+01  0.5627E-01  0.5627E-01
    -21.855  0.1497E+01  0.1497E+01  0.6900E-01  0.6900E-01
    -21.846  0.1690E+01  0.1690E+01  0.8338E-01  0.8338E-01
    -21.838  0.1907E+01  0.1907E+01  0.9959E-01  0.9959E-01
    -21.829  0.2167E+01  0.2167E+01  0.1180E+00  0.1180E+00
    -21.821  0.2501E+01  0.2501E+01  0.1393E+00  0.1393E+00
    -21.812  0.2951E+01  0.2951E+01  0.1644E+00  0.1644E+00
    -21.804  0.3570E+01  0.3570E+01  0.1947E+00  0.1947E+00
    -21.795  0.4419E+01  0.4419E+01  0.2323E+00  0.2323E+00
    -21.787  0.5557E+01  0.5557E+01  0.2796E+00  0.2796E+00
    -21.778  0.7023E+01  0.7023E+01  0.3393E+00  0.3393E+00
    -21.770  0.8818E+01  0.8818E+01  0.4143E+00  0.4143E+00
    -21.761  0.1088E+02  0.1088E+02  0.5068E+00  0.5068E+00
    -21.753  0.1307E+02  0.1307E+02  0.6179E+00  0.6179E+00
    -21.744  0.1518E+02  0.1518E+02  0.7469E+00  0.7469E+00
    -21.736  0.1696E+02  0.1696E+02  0.8911E+00  0.8911E+00
    -21.727  0.1815E+02  0.1815E+02  0.1045E+01  0.1045E+01
    -21.719  0.1855E+02  0.1855E+02  0.1203E+01  0.1203E+01
    -21.710  0.1808E+02  0.1808E+02  0.1357E+01  0.1357E+01
    -21.702  0.1677E+02  0.1677E+02  0.1499E+01  0.1499E+01
    -21.693  0.1478E+02  0.1478E+02  0.1625E+01  0.1625E+01
    -21.685  0.1238E+02  0.1238E+02  0.1730E+01  0.1730E+01
    -21.676  0.9846E+01  0.9846E+01  0.1814E+01  0.1814E+01
    -21.668  0.7430E+01  0.7430E+01  0.1877E+01  0.1877E+01
    -21.659  0.5320E+01  0.5320E+01  0.1923E+01  0.1923E+01
    -21.651  0.3614E+01  0.3614E+01  0.1953E+01  0.1953E+01
    -21.642  0.2329E+01  0.2329E+01  0.1973E+01  0.1973E+01
    -21.634  0.1424E+01  0.1424E+01  0.1985E+01  0.1985E+01
    -21.625  0.8264E+00  0.8264E+00  0.1992E+01  0.1992E+01
    -21.617  0.4550E+00  0.4550E+00  0.1996E+01  0.1996E+01
    -21.608  0.2378E+00  0.2378E+00  0.1998E+01  0.1998E+01
    -21.600  0.1180E+00  0.1180E+00  0.1999E+01  0.1999E+01
    -21.591  0.5562E-01  0.5562E-01  0.2000E+01  0.2000E+01
    -21.583  0.2490E-01  0.2490E-01  0.2000E+01  0.2000E+01
    -21.574  0.1059E-01  0.1059E-01  0.2000E+01  0.2000E+01
    -21.566  0.4281E-02  0.4281E-02  0.2000E+01  0.2000E+01
    -21.557  0.1645E-02  0.1645E-02  0.2000E+01  0.2000E+01
    -21.549  0.6006E-03  0.6006E-03  0.2000E+01  0.2000E+01
    -21.540  0.2085E-03  0.2085E-03  0.2000E+01  0.2000E+01
    -21.532  0.6879E-04  0.6879E-04  0.2000E+01  0.2000E+01
    -21.523  0.2157E-04  0.2157E-04  0.2000E+01  0.2000E+01
    -21.515  0.6430E-05  0.6430E-05  0.2000E+01  0.2000E+01
    -21.506  0.1821E-05  0.1821E-05  0.2000E+01  0.2000E+01
    -21.498  0.4898E-06  0.4898E-06  0.2000E+01  0.2000E+01
    -21.489  0.1251E-06  0.1251E-06  0.2000E+01  0.2000E+01
    -21.481  0.3034E-07  0.3034E-07  0.2000E+01  0.2000E+01
    -21.472  0.6983E-08  0.6983E-08  0.2000E+01  0.2000E+01
    -21.464  0.1524E-08  0.1524E-08  0.2000E+01  0.2000E+01
    -21.455  0.3156E-09  0.3156E-09  0.2000E+01  0.2000E+01
    -21.447  0.6193E-10  0.6193E-10  0.2000E+01  0.2000E+01
    -21.438  0.1151E-10  0.1151E-10  0.2000E+01  0.2000E+01
    -21.430  0.2029E-11  0.2029E-11  0.2000E+01  0.2000E+01
    -21.421  0.3438E-12  0.3438E-12  0.2000E+01  0.2000E+01
    -21.413  0.5108E-13  0.5108E-13  0.2000E+01  0.2000E+01
    -21.404  0.7625E-14  0.7625E-14  0.2000E+01  0.2000E+01
    -21.396  0.1035E-14  0.1035E-14  0.2000E+01  0.2000E+01
    -21.387  0.0000E+00  0.0000E+00  0.2000E+01  0.2000E+01
    -21.379  0.0000E+00  0.0000E+00  0.2000E+01  0.2000E+01
    -21.370  0.0000E+00  0.0000E+00  0.2000E+01  0.2000E+01
    -21.362  0.0000E+00  0.0000E+00  0.2000E+01  0.2000E+01
    -21.353  0.0000E+00  0.0000E+00  0.2000E+01  0.2000E+01
    -21.345  0.0000E+00  0.0000E+00  0.2000E+01  0.2000E+01
    -21.336  0.0000E+00  0.0000E+00  0.2000E+01  0.2000E+01
    -21.328  0.0000E+00  0.0000E+00  0.2000E+01  0.2000E+01
    -21.319  0.0000E+00  0.0000E+00  0.2000E+01  0.2000E+01
    -21.311  0.0000E+00  0.0000E+00  0.2000E+01  0.2000E+01
    -21.302  0.0000E+00  0.0000E+00  0.2000E+01  0.2000E+01
    -21.294  0.0000E+00  0.0000E+00  0.2000E+01  0.2000E+01
    -21.285  0.0000E+00  0.0000E+00  0.2000E+01  0.2000E+01
    -21.277  0.0000E+00  0.0000E+00  0.2000E+01  0.2000E+01
    -21.268  0.0000E+00  0.0000E+00  0.2000E+01  0.2000E+01
    -21.260  0.0000E+00  0.0000E+00  0.2000E+01  0.2000E+01
    -21.251  0.0000E+00  0.0000E+00  0.2000E+01  0.2000E+01
    -21.243  0.0000E+00  0.0000E+00  0.2000E+01  0.2000E+01
    -21.234  0.0000E+00  0.0000E+00  0.2000E+01  0.2000E+01
    -21.226  0.0000E+00  0.0000E+00  0.2000E+01  0.2000E+01
    -21.217  0.0000E+00  0.0000E+00  0.2000E+01  0.2000E+01
    -21.209  0.0000E+00  0.0000E+00  0.2000E+01  0.2000E+01
    -21.200  0.0000E+00  0.0000E+00  0.2000E+01  0.2000E+01
    -21.192  0.0000E+00  0.0000E+00  0.2000E+01  0.2000E+01
    -21.183  0.0000E+00  0.0000E+00  0.2000E+01  0.2000E+01
    -21.175  0.0000E+00  0.0000E+00  0.2000E+01  0.2000E+01
    -21.166  0.0000E+00  0.0000E+00  0.2000E+01  0.2000E+01
    -21.158  0.0000E+00  0.0000E+00  0.2000E+01  0.2000E+01
    -21.149  0.0000E+00  0.0000E+00  0.2000E+01  0.2000E+01
    -21.141  0.0000E+00  0.0000E+00  0.2000E+01  0.2000E+01
    -21.132  0.0000E+00  0.0000E+00  0.2000E+01  0.2000E+01
    -21.124  0.0000E+00  0.0000E+00  0.2000E+01  0.2000E+01
    -21.115  0.0000E+00  0.0000E+00  0.2000E+01  0.2000E+01
    -21.107  0.0000E+00  0.0000E+00  0.2000E+01  0.2000E+01
    -21.098  0.0000E+00  0.0000E+00  0.2000E+01  0.2000E+01
    -21.090  0.0000E+00  0.0000E+00  0.2000E+01  0.2000E+01
    -21.081  0.0000E+00  0.0000E+00  0.2000E+01  0.2000E+01
    -21.073  0.0000E+00  0.0000E+00  0.2000E+01  0.2000E+01
    -21.064  0.0000E+00  0.0000E+00  0.2000E+01  0.2000E+01
    -21.056  0.0000E+00  0.0000E+00  0.2000E+01  0.2000E+01
    -21.047  0.0000E+00  0.0000E+00  0.2000E+01  0.2000E+01
    -21.039  0.0000E+00  0.0000E+00  0.2000E+01  0.2000E+01
    -21.030  0.0000E+00  0.0000E+00  0.2000E+01  0.2000E+01
    -21.022  0.0000E+00  0.0000E+00  0.2000E+01  0.2000E+01
    -21.013  0.0000E+00  0.0000E+00  0.2000E+01  0.2000E+01
    -21.005  0.0000E+00  0.0000E+00  0.2000E+01  0.2000E+01
    -20.996  0.0000E+00  0.0000E+00  0.2000E+01  0.2000E+01
    -20.988  0.0000E+00  0.0000E+00  0.2000E+01  0.2000E+01
    -20.979  0.0000E+00  0.0000E+00  0.2000E+01  0.2000E+01
    -20.971  0.0000E+00  0.0000E+00  0.2000E+01  0.2000E+01
    -20.962  0.0000E+00  0.0000E+00  0.2000E+01  0.2000E+01
    -20.954  0.0000E+00  0.0000E+00  0.2000E+01  0.2000E+01
    -20.945  0.0000E+00  0.0000E+00  0.2000E+01  0.2000E+01
    -20.937  0.0000E+00  0.0000E+00  0.2000E+01  0.2000E+01
    -20.928  0.0000E+00  0.0000E+00  0.2000E+01  0.2000E+01
    -20.920  0.0000E+00  0.0000E+00  0.2000E+01  0.2000E+01
    -20.911  0.0000E+00  0.0000E+00  0.2000E+01  0.2000E+01
    -20.903  0.0000E+00  0.0000E+00  0.2000E+01  0.2000E+01
    -20.894  0.0000E+00  0.0000E+00  0.2000E+01  0.2000E+01
    -20.886  0.0000E+00  0.0000E+00  0.2000E+01  0.2000E+01
    -20.877  0.0000E+00  0.0000E+00  0.2000E+01  0.2000E+01
    -20.869  0.0000E+00  0.0000E+00  0.2000E+01  0.2000E+01
    -20.860  0.0000E+00  0.0000E+00  0.2000E+01  0.2000E+01
    -20.852  0.0000E+00  0.0000E+00  0.2000E+01  0.2000E+01
    -20.843  0.0000E+00  0.0000E+00  0.2000E+01  0.2000E+01
    -20.835  0.0000E+00  0.0000E+00  0.2000E+01  0.2000E+01
    -20.826  0.0000E+00  0.0000E+00  0.2000E+01  0.2000E+01
    -20.818  0.0000E+00  0.0000E+00  0.2000E+01  0.2000E+01
    -20.809  0.0000E+00  0.0000E+00  0.2000E+01  0.2000E+01
    -20.801  0.0000E+00  0.0000E+00  0.2000E+01  0.2000E+01
    -20.792  0.0000E+00  0.0000E+00  0.2000E+01  0.2000E+01
    -20.784  0.0000E+00  0.0000E+00  0.2000E+01  0.2000E+01
    -20.775  0.0000E+00  0.0000E+00  0.2000E+01  0.2000E+01
    -20.767  0.0000E+00  0.0000E+00  0.2000E+01  0.2000E+01
    -20.758  0.0000E+00  0.0000E+00  0.2000E+01  0.2000E+01
    -20.750  0.0000E+00  0.0000E+00  0.2000E+01  0.2000E+01
    -20.741  0.0000E+00  0.0000E+00  0.2000E+01  0.2000E+01
    -20.733  0.0000E+00  0.0000E+00  0.2000E+01  0.2000E+01
    -20.724  0.0000E+00  0.0000E+00  0.2000E+01  0.2000E+01
    -20.716  0.0000E+00  0.0000E+00  0.2000E+01  0.2000E+01
    -20.707  0.0000E+00  0.0000E+00  0.2000E+01  0.2000E+01
    -20.699  0.0000E+00  0.0000E+00  0.2000E+01  0.2000E+01
    -20.690  0.0000E+00  0.0000E+00  0.2000E+01  0.2000E+01
    -20.682  0.0000E+00  0.0000E+00  0.2000E+01  0.2000E+01
    -20.673  0.0000E+00  0.0000E+00  0.2000E+01  0.2000E+01
    -20.665  0.0000E+00  0.0000E+00  0.2000E+01  0.2000E+01
    -20.656  0.0000E+00  0.0000E+00  0.2000E+01  0.2000E+01
    -20.648  0.0000E+00  0.0000E+00  0.2000E+01  0.2000E+01
    -20.639  0.0000E+00  0.0000E+00  0.2000E+01  0.2000E+01
    -20.631  0.0000E+00  0.0000E+00  0.2000E+01  0.2000E+01
    -20.622  0.0000E+00  0.0000E+00  0.2000E+01  0.2000E+01
    -20.614  0.0000E+00  0.0000E+00  0.2000E+01  0.2000E+01
    -20.605  0.0000E+00  0.0000E+00  0.2000E+01  0.2000E+01
    -20.596  0.0000E+00  0.0000E+00  0.2000E+01  0.2000E+01
    -20.588  0.0000E+00  0.0000E+00  0.2000E+01  0.2000E+01
    -20.579  0.0000E+00  0.0000E+00  0.2000E+01  0.2000E+01
    -20.571  0.0000E+00  0.0000E+00  0.2000E+01  0.2000E+01
    -20.562  0.0000E+00  0.0000E+00  0.2000E+01  0.2000E+01
    -20.554  0.0000E+00  0.0000E+00  0.2000E+01  0.2000E+01
    -20.545  0.0000E+00  0.0000E+00  0.2000E+01  0.2000E+01
    -20.537  0.0000E+00  0.0000E+00  0.2000E+01  0.2000E+01
    -20.528  0.0000E+00  0.0000E+00  0.2000E+01  0.2000E+01
    -20.520  0.0000E+00  0.0000E+00  0.2000E+01  0.2000E+01
    -20.511  0.0000E+00  0.0000E+00  0.2000E+01  0.2000E+01
    -20.503  0.0000E+00  0.0000E+00  0.2000E+01  0.2000E+01
    -20.494  0.0000E+00  0.0000E+00  0.2000E+01  0.2000E+01
    -20.486  0.0000E+00  0.0000E+00  0.2000E+01  0.2000E+01
    -20.477  0.0000E+00  0.0000E+00  0.2000E+01  0.2000E+01
    -20.469  0.0000E+00  0.0000E+00  0.2000E+01  0.2000E+01
    -20.460  0.0000E+00  0.0000E+00  0.2000E+01  0.2000E+01
    -20.452  0.0000E+00  0.0000E+00  0.2000E+01  0.2000E+01
    -20.443  0.0000E+00  0.0000E+00  0.2000E+01  0.2000E+01
    -20.435  0.0000E+00  0.0000E+00  0.2000E+01  0.2000E+01
    -20.426  0.0000E+00  0.0000E+00  0.2000E+01  0.2000E+01
    -20.418  0.0000E+00  0.0000E+00  0.2000E+01  0.2000E+01
    -20.409  0.0000E+00  0.0000E+00  0.2000E+01  0.2000E+01
    -20.401  0.0000E+00  0.0000E+00  0.2000E+01  0.2000E+01
    -20.392  0.0000E+00  0.0000E+00  0.2000E+01  0.2000E+01
    -20.384  0.0000E+00  0.0000E+00  0.2000E+01  0.2000E+01
    -20.375  0.0000E+00  0.0000E+00  0.2000E+01  0.2000E+01
    -20.367  0.0000E+00  0.0000E+00  0.2000E+01  0.2000E+01
    -20.358  0.0000E+00  0.0000E+00  0.2000E+01  0.2000E+01
    -20.350  0.0000E+00  0.0000E+00  0.2000E+01  0.2000E+01
    -20.341  0.0000E+00  0.0000E+00  0.2000E+01  0.2000E+01
    -20.333  0.0000E+00  0.0000E+00  0.2000E+01  0.2000E+01
    -20.324  0.0000E+00  0.0000E+00  0.2000E+01  0.2000E+01
    -20.316  0.0000E+00  0.0000E+00  0.2000E+01  0.2000E+01
    -20.307  0.0000E+00  0.0000E+00  0.2000E+01  0.2000E+01
    -20.299  0.0000E+00  0.0000E+00  0.2000E+01  0.2000E+01
    -20.290  0.0000E+00  0.0000E+00  0.2000E+01  0.2000E+01
    -20.282  0.0000E+00  0.0000E+00  0.2000E+01  0.2000E+01
    -20.273  0.0000E+00  0.0000E+00  0.2000E+01  0.2000E+01
    -20.265  0.0000E+00  0.0000E+00  0.2000E+01  0.2000E+01
    -20.256  0.0000E+00  0.0000E+00  0.2000E+01  0.2000E+01
    -20.248  0.0000E+00  0.0000E+00  0.2000E+01  0.2000E+01
    -20.239  0.0000E+00  0.0000E+00  0.2000E+01  0.2000E+01
    -20.231  0.0000E+00  0.0000E+00  0.2000E+01  0.2000E+01
    -20.222  0.0000E+00  0.0000E+00  0.2000E+01  0.2000E+01
    -20.214  0.0000E+00  0.0000E+00  0.2000E+01  0.2000E+01
    -20.205  0.0000E+00  0.0000E+00  0.2000E+01  0.2000E+01
    -20.197  0.0000E+00  0.0000E+00  0.2000E+01  0.2000E+01
    -20.188  0.0000E+00  0.0000E+00  0.2000E+01  0.2000E+01
    -20.180  0.0000E+00  0.0000E+00  0.2000E+01  0.2000E+01
    -20.171  0.0000E+00  0.0000E+00  0.2000E+01  0.2000E+01
    -20.163  0.0000E+00  0.0000E+00  0.2000E+01  0.2000E+01
    -20.154  0.0000E+00  0.0000E+00  0.2000E+01  0.2000E+01
    -20.146  0.0000E+00  0.0000E+00  0.2000E+01  0.2000E+01
    -20.137  0.0000E+00  0.0000E+00  0.2000E+01  0.2000E+01
    -20.129  0.0000E+00  0.0000E+00  0.2000E+01  0.2000E+01
    -20.120  0.0000E+00  0.0000E+00  0.2000E+01  0.2000E+01
    -20.112  0.0000E+00  0.0000E+00  0.2000E+01  0.2000E+01
    -20.103  0.0000E+00  0.0000E+00  0.2000E+01  0.2000E+01
    -20.095  0.0000E+00  0.0000E+00  0.2000E+01  0.2000E+01
    -20.086  0.0000E+00  0.0000E+00  0.2000E+01  0.2000E+01
    -20.078  0.0000E+00  0.0000E+00  0.2000E+01  0.2000E+01
    -20.069  0.0000E+00  0.0000E+00  0.2000E+01  0.2000E+01
    -20.061  0.0000E+00  0.0000E+00  0.2000E+01  0.2000E+01
    -20.052  0.0000E+00  0.0000E+00  0.2000E+01  0.2000E+01
    -20.044  0.0000E+00  0.0000E+00  0.2000E+01  0.2000E+01
    -20.035  0.0000E+00  0.0000E+00  0.2000E+01  0.2000E+01
    -20.027  0.0000E+00  0.0000E+00  0.2000E+01  0.2000E+01
    -20.018  0.0000E+00  0.0000E+00  0.2000E+01  0.2000E+01
    -20.010  0.0000E+00  0.0000E+00  0.2000E+01  0.2000E+01
    -20.001  0.0000E+00  0.0000E+00  0.2000E+01  0.2000E+01
    -19.993  0.0000E+00  0.0000E+00  0.2000E+01  0.2000E+01
    -19.984  0.0000E+00  0.0000E+00  0.2000E+01  0.2000E+01
    -19.976  0.0000E+00  0.0000E+00  0.2000E+01  0.2000E+01
    -19.967  0.0000E+00  0.0000E+00  0.2000E+01  0.2000E+01
    -19.959  0.0000E+00  0.0000E+00  0.2000E+01  0.2000E+01
    -19.950  0.0000E+00  0.0000E+00  0.2000E+01  0.2000E+01
    -19.942  0.0000E+00  0.0000E+00  0.2000E+01  0.2000E+01
    -19.933  0.0000E+00  0.0000E+00  0.2000E+01  0.2000E+01
    -19.925  0.0000E+00  0.0000E+00  0.2000E+01  0.2000E+01
    -19.916  0.0000E+00  0.0000E+00  0.2000E+01  0.2000E+01
    -19.908  0.0000E+00  0.0000E+00  0.2000E+01  0.2000E+01
    -19.899  0.0000E+00  0.0000E+00  0.2000E+01  0.2000E+01
    -19.891  0.0000E+00  0.0000E+00  0.2000E+01  0.2000E+01
    -19.882  0.0000E+00  0.0000E+00  0.2000E+01  0.2000E+01
    -19.874  0.0000E+00  0.0000E+00  0.2000E+01  0.2000E+01
    -19.865  0.0000E+00  0.0000E+00  0.2000E+01  0.2000E+01
    -19.857  0.0000E+00  0.0000E+00  0.2000E+01  0.2000E+01
    -19.848  0.0000E+00  0.0000E+00  0.2000E+01  0.2000E+01
    -19.840  0.0000E+00  0.0000E+00  0.2000E+01  0.2000E+01
    -19.831  0.0000E+00  0.0000E+00  0.2000E+01  0.2000E+01
    -19.823  0.0000E+00  0.0000E+00  0.2000E+01  0.2000E+01
    -19.814  0.0000E+00  0.0000E+00  0.2000E+01  0.2000E+01
    -19.806  0.0000E+00  0.0000E+00  0.2000E+01  0.2000E+01
    -19.797  0.0000E+00  0.0000E+00  0.2000E+01  0.2000E+01
    -19.789  0.0000E+00  0.0000E+00  0.2000E+01  0.2000E+01
    -19.780  0.0000E+00  0.0000E+00  0.2000E+01  0.2000E+01
    -19.772  0.0000E+00  0.0000E+00  0.2000E+01  0.2000E+01
    -19.763  0.0000E+00  0.0000E+00  0.2000E+01  0.2000E+01
    -19.755  0.0000E+00  0.0000E+00  0.2000E+01  0.2000E+01
    -19.746  0.0000E+00  0.0000E+00  0.2000E+01  0.2000E+01
    -19.738  0.0000E+00  0.0000E+00  0.2000E+01  0.2000E+01
    -19.729  0.0000E+00  0.0000E+00  0.2000E+01  0.2000E+01
    -19.721  0.0000E+00  0.0000E+00  0.2000E+01  0.2000E+01
    -19.712  0.0000E+00  0.0000E+00  0.2000E+01  0.2000E+01
    -19.704  0.0000E+00  0.0000E+00  0.2000E+01  0.2000E+01
    -19.695  0.0000E+00  0.0000E+00  0.2000E+01  0.2000E+01
    -19.687  0.0000E+00  0.0000E+00  0.2000E+01  0.2000E+01
    -19.678  0.0000E+00  0.0000E+00  0.2000E+01  0.2000E+01
    -19.670  0.0000E+00  0.0000E+00  0.2000E+01  0.2000E+01
    -19.661  0.0000E+00  0.0000E+00  0.2000E+01  0.2000E+01
    -19.653  0.0000E+00  0.0000E+00  0.2000E+01  0.2000E+01
    -19.644  0.0000E+00  0.0000E+00  0.2000E+01  0.2000E+01
    -19.636  0.0000E+00  0.0000E+00  0.2000E+01  0.2000E+01
    -19.627  0.0000E+00  0.0000E+00  0.2000E+01  0.2000E+01
    -19.619  0.0000E+00  0.0000E+00  0.2000E+01  0.2000E+01
    -19.610  0.0000E+00  0.0000E+00  0.2000E+01  0.2000E+01
    -19.602  0.0000E+00  0.0000E+00  0.2000E+01  0.2000E+01
    -19.593  0.0000E+00  0.0000E+00  0.2000E+01  0.2000E+01
    -19.585  0.0000E+00  0.0000E+00  0.2000E+01  0.2000E+01
    -19.576  0.0000E+00  0.0000E+00  0.2000E+01  0.2000E+01
    -19.568  0.0000E+00  0.0000E+00  0.2000E+01  0.2000E+01
    -19.559  0.0000E+00  0.0000E+00  0.2000E+01  0.2000E+01
    -19.551  0.0000E+00  0.0000E+00  0.2000E+01  0.2000E+01
    -19.542  0.0000E+00  0.0000E+00  0.2000E+01  0.2000E+01
    -19.534  0.0000E+00  0.0000E+00  0.2000E+01  0.2000E+01
    -19.525  0.0000E+00  0.0000E+00  0.2000E+01  0.2000E+01
    -19.517  0.0000E+00  0.0000E+00  0.2000E+01  0.2000E+01
    -19.508  0.0000E+00  0.0000E+00  0.2000E+01  0.2000E+01
    -19.500  0.0000E+00  0.0000E+00  0.2000E+01  0.2000E+01
    -19.491  0.0000E+00  0.0000E+00  0.2000E+01  0.2000E+01
    -19.483  0.0000E+00  0.0000E+00  0.2000E+01  0.2000E+01
    -19.474  0.0000E+00  0.0000E+00  0.2000E+01  0.2000E+01
    -19.466  0.0000E+00  0.0000E+00  0.2000E+01  0.2000E+01
    -19.457  0.0000E+00  0.0000E+00  0.2000E+01  0.2000E+01
    -19.449  0.0000E+00  0.0000E+00  0.2000E+01  0.2000E+01
    -19.440  0.0000E+00  0.0000E+00  0.2000E+01  0.2000E+01
    -19.432  0.0000E+00  0.0000E+00  0.2000E+01  0.2000E+01
    -19.423  0.0000E+00  0.0000E+00  0.2000E+01  0.2000E+01
    -19.415  0.0000E+00  0.0000E+00  0.2000E+01  0.2000E+01
    -19.406  0.0000E+00  0.0000E+00  0.2000E+01  0.2000E+01
    -19.398  0.0000E+00  0.0000E+00  0.2000E+01  0.2000E+01
    -19.389  0.0000E+00  0.0000E+00  0.2000E+01  0.2000E+01
    -19.381  0.0000E+00  0.0000E+00  0.2000E+01  0.2000E+01
    -19.372  0.0000E+00  0.0000E+00  0.2000E+01  0.2000E+01
    -19.364  0.0000E+00  0.0000E+00  0.2000E+01  0.2000E+01
    -19.355  0.0000E+00  0.0000E+00  0.2000E+01  0.2000E+01
    -19.347  0.0000E+00  0.0000E+00  0.2000E+01  0.2000E+01
    -19.338  0.0000E+00  0.0000E+00  0.2000E+01  0.2000E+01
    -19.330  0.0000E+00  0.0000E+00  0.2000E+01  0.2000E+01
    -19.321  0.0000E+00  0.0000E+00  0.2000E+01  0.2000E+01
    -19.313  0.0000E+00  0.0000E+00  0.2000E+01  0.2000E+01
    -19.304  0.0000E+00  0.0000E+00  0.2000E+01  0.2000E+01
    -19.296  0.0000E+00  0.0000E+00  0.2000E+01  0.2000E+01
    -19.287  0.0000E+00  0.0000E+00  0.2000E+01  0.2000E+01
    -19.279  0.0000E+00  0.0000E+00  0.2000E+01  0.2000E+01
    -19.270  0.0000E+00  0.0000E+00  0.2000E+01  0.2000E+01
    -19.262  0.0000E+00  0.0000E+00  0.2000E+01  0.2000E+01
    -19.253  0.0000E+00  0.0000E+00  0.2000E+01  0.2000E+01
    -19.245  0.0000E+00  0.0000E+00  0.2000E+01  0.2000E+01
    -19.236  0.0000E+00  0.0000E+00  0.2000E+01  0.2000E+01
    -19.228  0.0000E+00  0.0000E+00  0.2000E+01  0.2000E+01
    -19.219  0.0000E+00  0.0000E+00  0.2000E+01  0.2000E+01
    -19.211  0.0000E+00  0.0000E+00  0.2000E+01  0.2000E+01
    -19.202  0.0000E+00  0.0000E+00  0.2000E+01  0.2000E+01
    -19.194  0.0000E+00  0.0000E+00  0.2000E+01  0.2000E+01
    -19.185  0.0000E+00  0.0000E+00  0.2000E+01  0.2000E+01
    -19.176  0.0000E+00  0.0000E+00  0.2000E+01  0.2000E+01
    -19.168  0.0000E+00  0.0000E+00  0.2000E+01  0.2000E+01
    -19.159  0.0000E+00  0.0000E+00  0.2000E+01  0.2000E+01
    -19.151  0.0000E+00  0.0000E+00  0.2000E+01  0.2000E+01
    -19.142  0.0000E+00  0.0000E+00  0.2000E+01  0.2000E+01
    -19.134  0.0000E+00  0.0000E+00  0.2000E+01  0.2000E+01
    -19.125  0.0000E+00  0.0000E+00  0.2000E+01  0.2000E+01
    -19.117  0.0000E+00  0.0000E+00  0.2000E+01  0.2000E+01
    -19.108  0.0000E+00  0.0000E+00  0.2000E+01  0.2000E+01
    -19.100  0.0000E+00  0.0000E+00  0.2000E+01  0.2000E+01
    -19.091  0.0000E+00  0.0000E+00  0.2000E+01  0.2000E+01
    -19.083  0.0000E+00  0.0000E+00  0.2000E+01  0.2000E+01
    -19.074  0.0000E+00  0.0000E+00  0.2000E+01  0.2000E+01
    -19.066  0.0000E+00  0.0000E+00  0.2000E+01  0.2000E+01
    -19.057  0.0000E+00  0.0000E+00  0.2000E+01  0.2000E+01
    -19.049  0.0000E+00  0.0000E+00  0.2000E+01  0.2000E+01
    -19.040  0.0000E+00  0.0000E+00  0.2000E+01  0.2000E+01
    -19.032  0.0000E+00  0.0000E+00  0.2000E+01  0.2000E+01
    -19.023  0.0000E+00  0.0000E+00  0.2000E+01  0.2000E+01
    -19.015  0.0000E+00  0.0000E+00  0.2000E+01  0.2000E+01
    -19.006  0.0000E+00  0.0000E+00  0.2000E+01  0.2000E+01
    -18.998  0.0000E+00  0.0000E+00  0.2000E+01  0.2000E+01
    -18.989  0.0000E+00  0.0000E+00  0.2000E+01  0.2000E+01
    -18.981  0.0000E+00  0.0000E+00  0.2000E+01  0.2000E+01
    -18.972  0.0000E+00  0.0000E+00  0.2000E+01  0.2000E+01
    -18.964  0.0000E+00  0.0000E+00  0.2000E+01  0.2000E+01
    -18.955  0.0000E+00  0.0000E+00  0.2000E+01  0.2000E+01
    -18.947  0.0000E+00  0.0000E+00  0.2000E+01  0.2000E+01
    -18.938  0.0000E+00  0.0000E+00  0.2000E+01  0.2000E+01
    -18.930  0.0000E+00  0.0000E+00  0.2000E+01  0.2000E+01
    -18.921  0.0000E+00  0.0000E+00  0.2000E+01  0.2000E+01
    -18.913  0.0000E+00  0.0000E+00  0.2000E+01  0.2000E+01
    -18.904  0.0000E+00  0.0000E+00  0.2000E+01  0.2000E+01
    -18.896  0.0000E+00  0.0000E+00  0.2000E+01  0.2000E+01
    -18.887  0.0000E+00  0.0000E+00  0.2000E+01  0.2000E+01
    -18.879  0.0000E+00  0.0000E+00  0.2000E+01  0.2000E+01
    -18.870  0.0000E+00  0.0000E+00  0.2000E+01  0.2000E+01
    -18.862  0.0000E+00  0.0000E+00  0.2000E+01  0.2000E+01
    -18.853  0.0000E+00  0.0000E+00  0.2000E+01  0.2000E+01