    5    5    1    2
  0.3981483E+02  0.3032300E-09  0.3032300E-09  0.2500000E-08  0.5000000E-15
  1.000000000000000E-004
  CAR 
 Si_ML                                   
     24   1161     20
 
  0.5000000E+00  0.0000000E+00  0.0000000E+00  0.8613264E-03
    1      -21.718674    -21.718674
    2      -21.717253    -21.717253
    3      -13.155205    -13.155205
    4       -9.607767     -9.607767
    5       -8.710658     -8.710658
    6       -7.767902     -7.767902
    7       -7.750042     -7.750042
    8       -7.533058     -7.533058
    9       -7.300133     -7.300133
   10       -6.831233     -6.831233
   11       -5.168461     -5.168461
   12       -4.853791     -4.853791
   13       -3.063352     -3.063352
   14       -1.888757     -1.888757
   15       -1.313554     -1.313554
   16       -1.262595     -1.262595
   17       -1.194906     -1.194906
   18       -0.725236     -0.725236
   19       -0.192518     -0.192518
   20        0.930283      0.930283
 
  0.4910000E+00 -0.9000000E-02  0.0000000E+00  0.8613264E-03
    1      -21.719166    -21.719166
    2      -21.717851    -21.717851
    3      -13.160063    -13.160063
    4       -9.599221     -9.599221
    5       -8.710583     -8.710583
    6       -7.773240     -7.773240
    7       -7.749158     -7.749158
    8       -7.533206     -7.533206
    9       -7.301068     -7.301068
   10       -6.825746     -6.825746
   11       -5.170214     -5.170214
   12       -4.859530     -4.859530
   13       -3.059261     -3.059261
   14       -1.887416     -1.887416
   15       -1.322880     -1.322880
   16       -1.258050     -1.258050
   17       -1.190091     -1.190091
   18       -0.725987     -0.725987
   19       -0.189773     -0.189773
   20        0.930888      0.930888
 
  0.4910000E+00 -0.8000000E-02  0.0000000E+00  0.8613264E-03
    1      -21.719141    -21.719141
    2      -21.717821    -21.717821
    3      -13.159747    -13.159747
    4       -9.600007     -9.600007
    5       -8.710588     -8.710588
    6       -7.772657     -7.772657
    7       -7.749330     -7.749330
    8       -7.533244     -7.533244
    9       -7.300998     -7.300998
   10       -6.826207     -6.826207
   11       -5.170007     -5.170007
   12       -4.858468     -4.858468
   13       -3.059997     -3.059997
   14       -1.887491     -1.887491
   15       -1.321933     -1.321933
   16       -1.258605     -1.258605
   17       -1.190479     -1.190479
   18       -0.725908     -0.725908
   19       -0.190055     -0.190055
   20        0.930811      0.930811
 
  0.4910000E+00 -0.7000000E-02  0.0000000E+00  0.8613264E-03
    1      -21.719109    -21.719109
    2      -21.717786    -21.717786
    3      -13.159438    -13.159438
    4       -9.600743     -9.600743
    5       -8.710594     -8.710594
    6       -7.772119     -7.772119
    7       -7.749482     -7.749482
    8       -7.533275     -7.533275
    9       -7.300930     -7.300930
   10       -6.826642     -6.826642
   11       -5.169818     -5.169818
   12       -4.857523     -4.857523
   13       -3.060652     -3.060652
   14       -1.887566     -1.887566
   15       -1.321041     -1.321041
   16       -1.259125     -1.259125
   17       -1.190845     -1.190845
   18       -0.725835     -0.725835
   19       -0.190313     -0.190313
   20        0.930742      0.930742
 
  0.4910000E+00 -0.6000000E-02  0.0000000E+00  0.8613264E-03
    1      -21.719091    -21.719091
    2      -21.717758    -21.717758
    3      -13.159137    -13.159137
    4       -9.601429     -9.601429
    5       -8.710599     -8.710599
    6       -7.771628     -7.771628
    7       -7.749613     -7.749613
    8       -7.533300     -7.533300
    9       -7.300865     -7.300865
   10       -6.827053     -6.827053
   11       -5.169646     -5.169646
   12       -4.856698     -4.856698
   13       -3.061227     -3.061227
   14       -1.887640     -1.887640
   15       -1.320211     -1.320211
   16       -1.259607     -1.259607
   17       -1.191192     -1.191192
   18       -0.725769     -0.725769
   19       -0.190554     -0.190554
   20        0.930689      0.930689
 
  0.4910000E+00 -0.5000000E-02  0.0000000E+00  0.8613264E-03
    1      -21.719061    -21.719061
    2      -21.717719    -21.717719
    3      -13.158843    -13.158843
    4       -9.602066     -9.602066
    5       -8.710604     -8.710604
    6       -7.771183     -7.771183
    7       -7.749725     -7.749725
    8       -7.533317     -7.533317
    9       -7.300803     -7.300803
   10       -6.827439     -6.827439
   11       -5.169492     -5.169492
   12       -4.855990     -4.855990
   13       -3.061720     -3.061720
   14       -1.887715     -1.887715
   15       -1.319445     -1.319445
   16       -1.260044     -1.260044
   17       -1.191518     -1.191518
   18       -0.725708     -0.725708
   19       -0.190771     -0.190771
   20        0.930621      0.930621
 
  0.4910000E+00 -0.4000000E-02  0.0000000E+00  0.8613264E-03
    1      -21.719034    -21.719034
    2      -21.717689    -21.717689
    3      -13.158556    -13.158556
    4       -9.602653     -9.602653
    5       -8.710609     -8.710609
    6       -7.770783     -7.770783
    7       -7.749817     -7.749817
    8       -7.533328     -7.533328
    9       -7.300743     -7.300743
   10       -6.827798     -6.827798
   11       -5.169355     -5.169355
   12       -4.855403     -4.855403
   13       -3.062131     -3.062131
   14       -1.887787     -1.887787
   15       -1.318748     -1.318748
   16       -1.260434     -1.260434
   17       -1.191825     -1.191825
   18       -0.725653     -0.725653
   19       -0.190973     -0.190973
   20        0.930571      0.930571
 
  0.4910000E+00 -0.3000000E-02  0.0000000E+00  0.8613264E-03
    1      -21.719004    -21.719004
    2      -21.717650    -21.717650
    3      -13.158277    -13.158277
    4       -9.603190     -9.603190
    5       -8.710613     -8.710613
    6       -7.770429     -7.770429
    7       -7.749889     -7.749889
    8       -7.533331     -7.533331
    9       -7.300687     -7.300687
   10       -6.828134     -6.828134
   11       -5.169236     -5.169236
   12       -4.854934     -4.854934
   13       -3.062461     -3.062461
   14       -1.887861     -1.887861
   15       -1.318122     -1.318122
   16       -1.260772     -1.260772
   17       -1.192112     -1.192112
   18       -0.725603     -0.725603
   19       -0.191151     -0.191151
   20        0.930529      0.930529
 
  0.4910000E+00 -0.2000000E-02  0.0000000E+00  0.8613264E-03
    1      -21.718984    -21.718984
    2      -21.717622    -21.717622
    3      -13.158006    -13.158006
    4       -9.603677     -9.603677
    5       -8.710617     -8.710617
    6       -7.770122     -7.770122
    7       -7.749942     -7.749942
    8       -7.533326     -7.533326
    9       -7.300635     -7.300635
   10       -6.828445     -6.828445
   11       -5.169136     -5.169136
   12       -4.854585     -4.854585
   13       -3.062711     -3.062711
   14       -1.887936     -1.887936
   15       -1.317573     -1.317573
   16       -1.261055     -1.261055
   17       -1.192381     -1.192381
   18       -0.725559     -0.725559
   19       -0.191310     -0.191310
   20        0.930493      0.930493
 
  0.4910000E+00 -0.1000000E-02  0.0000000E+00  0.8613264E-03
    1      -21.718956    -21.718956
    2      -21.717590    -21.717590
    3      -13.157741    -13.157741
    4       -9.604114     -9.604114
    5       -8.710622     -8.710622
    6       -7.769860     -7.769860
    7       -7.749975     -7.749975
    8       -7.533313     -7.533313
    9       -7.300585     -7.300585
   10       -6.828731     -6.828731
   11       -5.169051     -5.169051
   12       -4.854356     -4.854356
   13       -3.062877     -3.062877
   14       -1.888010     -1.888010
   15       -1.317102     -1.317102
   16       -1.261278     -1.261278
   17       -1.192631     -1.192631
   18       -0.725522     -0.725522
   19       -0.191448     -0.191448
   20        0.930466      0.930466
 
  0.4910000E+00  0.0000000E+00  0.0000000E+00  0.8613264E-03
    1      -21.718926    -21.718926
    2      -21.717570    -21.717570
    3      -13.157484    -13.157484
    4       -9.604501     -9.604501
    5       -8.710626     -8.710626
    6       -7.769645     -7.769645
    7       -7.749990     -7.749990
    8       -7.533292     -7.533292
    9       -7.300538     -7.300538
   10       -6.828991     -6.828991
   11       -5.168985     -5.168985
   12       -4.854248     -4.854248
   13       -3.062962     -3.062962
   14       -1.888084     -1.888084
   15       -1.316715     -1.316715
   16       -1.261440     -1.261440
   17       -1.192862     -1.192862
   18       -0.725491     -0.725491
   19       -0.191569     -0.191569
   20        0.930444      0.930444
 
  0.4910000E+00  0.1000000E-02  0.0000000E+00  0.8613264E-03
    1      -21.718905    -21.718905
    2      -21.717530    -21.717530
    3      -13.157235    -13.157235
    4       -9.604838     -9.604838
    5       -8.710630     -8.710630
    6       -7.769474     -7.769474
    7       -7.749987     -7.749987
    8       -7.533261     -7.533261
    9       -7.300494     -7.300494
   10       -6.829228     -6.829228
   11       -5.168936     -5.168936
   12       -4.854256     -4.854256
   13       -3.062964     -3.062964
   14       -1.888159     -1.888159
   15       -1.316411     -1.316411
   16       -1.261535     -1.261535
   17       -1.193076     -1.193076
   18       -0.725467     -0.725467
   19       -0.191662     -0.191662
   20        0.930430      0.930430
 
  0.4910000E+00  0.2000000E-02  0.0000000E+00  0.8613264E-03
    1      -21.718884    -21.718884
    2      -21.717500    -21.717500
    3      -13.156994    -13.156994
    4       -9.605125     -9.605125
    5       -8.710634     -8.710634
    6       -7.769350     -7.769350
    7       -7.749965     -7.749965
    8       -7.533223     -7.533223
    9       -7.300453     -7.300453
   10       -6.829440     -6.829440
   11       -5.168905     -5.168905
   12       -4.854386     -4.854386
   13       -3.062885     -3.062885
   14       -1.888235     -1.888235
   15       -1.316195     -1.316195
   16       -1.261562     -1.261562
   17       -1.193271     -1.193271
   18       -0.725448     -0.725448
   19       -0.191737     -0.191737
   20        0.930421      0.930421
 
  0.4910000E+00  0.3000000E-02  0.0000000E+00  0.8613264E-03
    1      -21.718853    -21.718853
    2      -21.717468    -21.717468
    3      -13.156760    -13.156760
    4       -9.605362     -9.605362
    5       -8.710637     -8.710637
    6       -7.769270     -7.769270
    7       -7.749926     -7.749926
    8       -7.533175     -7.533175
    9       -7.300416     -7.300416
   10       -6.829626     -6.829626
   11       -5.168891     -5.168891
   12       -4.854636     -4.854636
   13       -3.062723     -3.062723
   14       -1.888309     -1.888309
   15       -1.316067     -1.316067
   16       -1.261520     -1.261520
   17       -1.193449     -1.193449
   18       -0.725435     -0.725435
   19       -0.191791     -0.191791
   20        0.930420      0.930420
 
  0.4910000E+00  0.4000000E-02  0.0000000E+00  0.8613264E-03
    1      -21.718820    -21.718820
    2      -21.717438    -21.717438
    3      -13.156533    -13.156533
    4       -9.605549     -9.605549
    5       -8.710641     -8.710641
    6       -7.769235     -7.769235
    7       -7.749869     -7.749869
    8       -7.533119     -7.533119
    9       -7.300382     -7.300382
   10       -6.829787     -6.829787
   11       -5.168894     -5.168894
   12       -4.855005     -4.855005
   13       -3.062479     -3.062479
   14       -1.888384     -1.888384
   15       -1.316027     -1.316027
   16       -1.261407     -1.261407
   17       -1.193609     -1.193609
   18       -0.725429     -0.725429
   19       -0.191826     -0.191826
   20        0.930426      0.930426
 
  0.4910000E+00  0.5000000E-02  0.0000000E+00  0.8613264E-03
    1      -21.718795    -21.718795
    2      -21.717411    -21.717411
    3      -13.156315    -13.156315
    4       -9.605686     -9.605686
    5       -8.710645     -8.710645
    6       -7.769245     -7.769245
    7       -7.749795     -7.749795
    8       -7.533055     -7.533055
    9       -7.300351     -7.300351
   10       -6.829924     -6.829924
   11       -5.168915     -5.168915
   12       -4.855495     -4.855495
   13       -3.062154     -3.062154
   14       -1.888459     -1.888459
   15       -1.316077     -1.316077
   16       -1.261225     -1.261225
   17       -1.193752     -1.193752
   18       -0.725429     -0.725429
   19       -0.191841     -0.191841
   20        0.930439      0.930439
 
  0.4910000E+00  0.6000000E-02  0.0000000E+00  0.8613264E-03
    1      -21.718756    -21.718756
    2      -21.717375    -21.717375
    3      -13.156103    -13.156103
    4       -9.605772     -9.605772
    5       -8.710649     -8.710649
    6       -7.769299     -7.769299
    7       -7.749703     -7.749703
    8       -7.532980     -7.532980
    9       -7.300323     -7.300323
   10       -6.830035     -6.830035
   11       -5.168953     -5.168953
   12       -4.856102     -4.856102
   13       -3.061746     -3.061746
   14       -1.888533     -1.888533
   15       -1.316214     -1.316214
   16       -1.260972     -1.260972
   17       -1.193877     -1.193877
   18       -0.725434     -0.725434
   19       -0.191831     -0.191831
   20        0.930460      0.930460
 
  0.4910000E+00  0.7000000E-02  0.0000000E+00  0.8613264E-03
    1      -21.718713    -21.718713
    2      -21.717342    -21.717342
    3      -13.155898    -13.155898
    4       -9.605809     -9.605809
    5       -8.710652     -8.710652
    6       -7.769398     -7.769398
    7       -7.749595     -7.749595
    8       -7.532896     -7.532896
    9       -7.300298     -7.300298
   10       -6.830121     -6.830121
   11       -5.169009     -5.169009
   12       -4.856830     -4.856830
   13       -3.061258     -3.061258
   14       -1.888607     -1.888607
   15       -1.316438     -1.316438
   16       -1.260651     -1.260651
   17       -1.193986     -1.193986
   18       -0.725447     -0.725447
   19       -0.191801     -0.191801
   20        0.930510      0.930510
 
  0.4910000E+00  0.8000000E-02  0.0000000E+00  0.8613264E-03
    1      -21.718673    -21.718673
    2      -21.717306    -21.717306
    3      -13.155701    -13.155701
    4       -9.605795     -9.605795
    5       -8.710656     -8.710656
    6       -7.769542     -7.769542
    7       -7.749469     -7.749469
    8       -7.532804     -7.532804
    9       -7.300276     -7.300276
   10       -6.830182     -6.830182
   11       -5.169082     -5.169082
   12       -4.857674     -4.857674
   13       -3.060688     -3.060688
   14       -1.888681     -1.888681
   15       -1.316747     -1.316747
   16       -1.260264     -1.260264
   17       -1.194077     -1.194077
   18       -0.725465     -0.725465
   19       -0.191747     -0.191747
   20        0.930522      0.930522
 
  0.4910000E+00  0.9000000E-02  0.0000000E+00  0.8613264E-03
    1      -21.718640    -21.718640
    2      -21.717273    -21.717273
    3      -13.155513    -13.155513
    4       -9.605731     -9.605731
    5       -8.710660     -8.710660
    6       -7.769730     -7.769730
    7       -7.749327     -7.749327
    8       -7.532702     -7.532702
    9       -7.300258     -7.300258
   10       -6.830219     -6.830219
   11       -5.169174     -5.169174
   12       -4.858639     -4.858639
   13       -3.060037     -3.060037
   14       -1.888755     -1.888755
   15       -1.317137     -1.317137
   16       -1.259813     -1.259813
   17       -1.194151     -1.194151
   18       -0.725490     -0.725490
   19       -0.191674     -0.191674
   20        0.930562      0.930562
 
  0.4920000E+00 -0.9000000E-02  0.0000000E+00  0.8613264E-03
    1      -21.719082    -21.719082
    2      -21.717760    -21.717760
    3      -13.159335    -13.159335
    4       -9.600263     -9.600263
    5       -8.710597     -8.710597
    6       -7.772681     -7.772681
    7       -7.749184     -7.749184
    8       -7.533125     -7.533125
    9       -7.300936     -7.300936
   10       -6.826462     -6.826462
   11       -5.170048     -5.170048
   12       -4.859388     -4.859388
   13       -3.059386     -3.059386
   14       -1.887631     -1.887631
   15       -1.321971     -1.321971
   16       -1.258343     -1.258343
   17       -1.190721     -1.190721
   18       -0.725907     -0.725907
   19       -0.190077     -0.190077
   20        0.930835      0.930835
 
  0.4920000E+00 -0.8000000E-02  0.0000000E+00  0.8613264E-03
    1      -21.719060    -21.719060
    2      -21.717733    -21.717733
    3      -13.159046    -13.159046
    4       -9.601009     -9.601009
    5       -8.710602     -8.710602
    6       -7.772120     -7.772120
    7       -7.749353     -7.749353
    8       -7.533168     -7.533168
    9       -7.300871     -7.300871
   10       -6.826895     -6.826895
   11       -5.169847     -5.169847
   12       -4.858331     -4.858331
   13       -3.060117     -3.060117
   14       -1.887698     -1.887698
   15       -1.321044     -1.321044
   16       -1.258900     -1.258900
   17       -1.191085     -1.191085
   18       -0.725831     -0.725831
   19       -0.190348     -0.190348
   20        0.930760      0.930760
 
  0.4920000E+00 -0.7000000E-02  0.0000000E+00  0.8613264E-03
    1      -21.719040    -21.719040
    2      -21.717703    -21.717703
    3      -13.158765    -13.158765
    4       -9.601706     -9.601706
    5       -8.710606     -8.710606
    6       -7.771604     -7.771604
    7       -7.749502     -7.749502
    8       -7.533203     -7.533203
    9       -7.300808     -7.300808
   10       -6.827304     -6.827304
   11       -5.169664     -5.169664
   12       -4.857391     -4.857391
   13       -3.060768     -3.060768
   14       -1.887764     -1.887764
   15       -1.320175     -1.320175
   16       -1.259421     -1.259421
   17       -1.191429     -1.191429
   18       -0.725763     -0.725763
   19       -0.190595     -0.190595
   20        0.930691      0.930691
 
  0.4920000E+00 -0.6000000E-02  0.0000000E+00  0.8613264E-03
    1      -21.719011    -21.719011
    2      -21.717672    -21.717672
    3      -13.158491    -13.158491
    4       -9.602352     -9.602352
    5       -8.710611     -8.710611
    6       -7.771134     -7.771134
    7       -7.749632     -7.749632
    8       -7.533232     -7.533232
    9       -7.300748     -7.300748
   10       -6.827687     -6.827687
   11       -5.169499     -5.169499
   12       -4.856570     -4.856570
   13       -3.061337     -3.061337
   14       -1.887830     -1.887830
   15       -1.319369     -1.319369
   16       -1.259900     -1.259900
   17       -1.191752     -1.191752
   18       -0.725698     -0.725698
   19       -0.190822     -0.190822
   20        0.930631      0.930631
 
  0.4920000E+00 -0.5000000E-02  0.0000000E+00  0.8613264E-03
    1      -21.718993    -21.718993
    2      -21.717650    -21.717650
    3      -13.158226    -13.158226
    4       -9.602949     -9.602949
    5       -8.710615     -8.710615
    6       -7.770710     -7.770710
    7       -7.749742     -7.749742
    8       -7.533254     -7.533254
    9       -7.300691     -7.300691
   10       -6.828045     -6.828045
   11       -5.169351     -5.169351
   12       -4.855870     -4.855870
   13       -3.061826     -3.061826
   14       -1.887897     -1.887897
   15       -1.318630     -1.318630
   16       -1.260334     -1.260334
   17       -1.192055     -1.192055
   18       -0.725640     -0.725640
   19       -0.191035     -0.191035
   20        0.930576      0.930576
 
  0.4920000E+00 -0.4000000E-02  0.0000000E+00  0.8613264E-03
    1      -21.718980    -21.718980
    2      -21.717612    -21.717612
    3      -13.157967    -13.157967
    4       -9.603497     -9.603497
    5       -8.710619     -8.710619
    6       -7.770333     -7.770333
    7       -7.749832     -7.749832
    8       -7.533267     -7.533267
    9       -7.300638     -7.300638
   10       -6.828379     -6.828379
   11       -5.169222     -5.169222
   12       -4.855287     -4.855287
   13       -3.062234     -3.062234
   14       -1.887962     -1.887962
   15       -1.317960     -1.317960
   16       -1.260718     -1.260718
   17       -1.192338     -1.192338
   18       -0.725587     -0.725587
   19       -0.191220     -0.191220
   20        0.930528      0.930528
 
  0.4920000E+00 -0.3000000E-02  0.0000000E+00  0.8613264E-03
    1      -21.718956    -21.718956
    2      -21.717585    -21.717585
    3      -13.157716    -13.157716
    4       -9.603994     -9.603994
    5       -8.710622     -8.710622
    6       -7.770001     -7.770001
    7       -7.749903     -7.749903
    8       -7.533273     -7.533273
    9       -7.300587     -7.300587
   10       -6.828687     -6.828687
   11       -5.169109     -5.169109
   12       -4.854823     -4.854823
   13       -3.062559     -3.062559
   14       -1.888028     -1.888028
   15       -1.317365     -1.317365
   16       -1.261049     -1.261049
   17       -1.192603     -1.192603
   18       -0.725541     -0.725541
   19       -0.191388     -0.191388
   20        0.930488      0.930488
 
  0.4920000E+00 -0.2000000E-02  0.0000000E+00  0.8613264E-03
    1      -21.718923    -21.718923
    2      -21.717555    -21.717555
    3      -13.157471    -13.157471
    4       -9.604441     -9.604441
    5       -8.710626     -8.710626
    6       -7.769714     -7.769714
    7       -7.749954     -7.749954
    8       -7.533271     -7.533271
    9       -7.300539     -7.300539
   10       -6.828969     -6.828969
   11       -5.169013     -5.169013
   12       -4.854480     -4.854480
   13       -3.062802     -3.062802
   14       -1.888093     -1.888093
   15       -1.316847     -1.316847
   16       -1.261322     -1.261322
   17       -1.192848     -1.192848
   18       -0.725500     -0.725500
   19       -0.191535     -0.191535
   20        0.930455      0.930455
 
  0.4920000E+00 -0.1000000E-02  0.0000000E+00  0.8613264E-03
    1      -21.718905    -21.718905
    2      -21.717530    -21.717530
    3      -13.157235    -13.157235
    4       -9.604838     -9.604838
    5       -8.710630     -8.710630
    6       -7.769474     -7.769474
    7       -7.749987     -7.749987
    8       -7.533261     -7.533261
    9       -7.300494     -7.300494
   10       -6.829228     -6.829228
   11       -5.168936     -5.168936
   12       -4.854256     -4.854256
   13       -3.062964     -3.062964
   14       -1.888159     -1.888159
   15       -1.316411     -1.316411
   16       -1.261535     -1.261535
   17       -1.193076     -1.193076
   18       -0.725467     -0.725467
   19       -0.191662     -0.191662
   20        0.930428      0.930428
 
  0.4920000E+00  0.0000000E+00  0.0000000E+00  0.8613264E-03
    1      -21.718871    -21.718871
    2      -21.717510    -21.717510
    3      -13.157006    -13.157006
    4       -9.605186     -9.605186
    5       -8.710633     -8.710633
    6       -7.769280     -7.769280
    7       -7.750001     -7.750001
    8       -7.533244     -7.533244
    9       -7.300452     -7.300452
   10       -6.829460     -6.829460
   11       -5.168876     -5.168876
   12       -4.854153     -4.854153
   13       -3.063044     -3.063044
   14       -1.888225     -1.888225
   15       -1.316059     -1.316059
   16       -1.261682     -1.261682
   17       -1.193284     -1.193284
   18       -0.725438     -0.725438
   19       -0.191771     -0.191771
   20        0.930408      0.930408
 
  0.4920000E+00  0.1000000E-02  0.0000000E+00  0.8613264E-03
    1      -21.718862    -21.718862
    2      -21.717476    -21.717476
    3      -13.156786    -13.156786
    4       -9.605483     -9.605483
    5       -8.710637     -8.710637
    6       -7.769131     -7.769131
    7       -7.749997     -7.749997
    8       -7.533216     -7.533216
    9       -7.300414     -7.300414
   10       -6.829671     -6.829671
   11       -5.168833     -5.168833
   12       -4.854168     -4.854168
   13       -3.063041     -3.063041
   14       -1.888293     -1.888293
   15       -1.315793     -1.315793
   16       -1.261762     -1.261762
   17       -1.193474     -1.193474
   18       -0.725417     -0.725417
   19       -0.191852     -0.191852
   20        0.930396      0.930396
 
  0.4920000E+00  0.2000000E-02  0.0000000E+00  0.8613264E-03
    1      -21.718835    -21.718835
    2      -21.717447    -21.717447
    3      -13.156572    -13.156572
    4       -9.605730     -9.605730
    5       -8.710640     -8.710640
    6       -7.769027     -7.769027
    7       -7.749975     -7.749975
    8       -7.533180     -7.533180
    9       -7.300378     -7.300378
   10       -6.829854     -6.829854
   11       -5.168808     -5.168808
   12       -4.854303     -4.854303
   13       -3.062957     -3.062957
   14       -1.888359     -1.888359
   15       -1.315616     -1.315616
   16       -1.261773     -1.261773
   17       -1.193647     -1.193647
   18       -0.725401     -0.725401
   19       -0.191915     -0.191915
   20        0.930390      0.930390
 
  0.4920000E+00  0.3000000E-02  0.0000000E+00  0.8613264E-03
    1      -21.718808    -21.718808
    2      -21.717418    -21.717418
    3      -13.156366    -13.156366
    4       -9.605927     -9.605927
    5       -8.710643     -8.710643
    6       -7.768968     -7.768968
    7       -7.749936     -7.749936
    8       -7.533135     -7.533135
    9       -7.300346     -7.300346
   10       -6.830013     -6.830013
   11       -5.168800     -5.168800
   12       -4.854558     -4.854558
   13       -3.062790     -3.062790
   14       -1.888425     -1.888425
   15       -1.315528     -1.315528
   16       -1.261714     -1.261714
   17       -1.193801     -1.193801
   18       -0.725392     -0.725392
   19       -0.191958     -0.191958
   20        0.930392      0.930392
 
  0.4920000E+00  0.4000000E-02  0.0000000E+00  0.8613264E-03
    1      -21.718784    -21.718784
    2      -21.717397    -21.717397
    3      -13.156168    -13.156168
    4       -9.606073     -9.606073
    5       -8.710646     -8.710646
    6       -7.768955     -7.768955
    7       -7.749879     -7.749879
    8       -7.533082     -7.533082
    9       -7.300317     -7.300317
   10       -6.830147     -6.830147
   11       -5.168810     -5.168810
   12       -4.854934     -4.854934
   13       -3.062542     -3.062542
   14       -1.888492     -1.888492
   15       -1.315530     -1.315530
   16       -1.261583     -1.261583
   17       -1.193938     -1.193938
   18       -0.725388     -0.725388
   19       -0.191983     -0.191983
   20        0.930400      0.930400
 
  0.4920000E+00  0.5000000E-02  0.0000000E+00  0.8613264E-03
    1      -21.718756    -21.718756
    2      -21.717368    -21.717368
    3      -13.155977    -13.155977
    4       -9.606170     -9.606170
    5       -8.710650     -8.710650
    6       -7.768985     -7.768985
    7       -7.749804     -7.749804
    8       -7.533019     -7.533019
    9       -7.300291     -7.300291
   10       -6.830255     -6.830255
   11       -5.168837     -5.168837
   12       -4.855428     -4.855428
   13       -3.062211     -3.062211
   14       -1.888558     -1.888558
   15       -1.315621     -1.315621
   16       -1.261381     -1.261381
   17       -1.194058     -1.194058
   18       -0.725392     -0.725392
   19       -0.191983     -0.191983
   20        0.930415      0.930415
 
  0.4920000E+00  0.6000000E-02  0.0000000E+00  0.8613264E-03
    1      -21.718728    -21.718728
    2      -21.717339    -21.717339
    3      -13.155794    -13.155794
    4       -9.606216     -9.606216
    5       -8.710653     -8.710653
    6       -7.769061     -7.769061
    7       -7.749713     -7.749713
    8       -7.532947     -7.532947
    9       -7.300268     -7.300268
   10       -6.830339     -6.830339
   11       -5.168882     -5.168882
   12       -4.856042     -4.856042
   13       -3.061799     -3.061799
   14       -1.888624     -1.888624
   15       -1.315801     -1.315801
   16       -1.261109     -1.261109
   17       -1.194160     -1.194160
   18       -0.725401     -0.725401
   19       -0.191962     -0.191962
   20        0.930437      0.930437
 
  0.4920000E+00  0.7000000E-02  0.0000000E+00  0.8613264E-03
    1      -21.718689    -21.718689
    2      -21.717310    -21.717310
    3      -13.155617    -13.155617
    4       -9.606212     -9.606212
    5       -8.710656     -8.710656
    6       -7.769181     -7.769181
    7       -7.749604     -7.749604
    8       -7.532866     -7.532866
    9       -7.300249     -7.300249
   10       -6.830398     -6.830398
   11       -5.168944     -5.168944
   12       -4.856775     -4.856775
   13       -3.061306     -3.061306
   14       -1.888689     -1.888689
   15       -1.316067     -1.316067
   16       -1.260770     -1.260770
   17       -1.194244     -1.194244
   18       -0.725417     -0.725417
   19       -0.191920     -0.191920
   20        0.930466      0.930466
 
  0.4920000E+00  0.8000000E-02  0.0000000E+00  0.8613264E-03
    1      -21.718652    -21.718652
    2      -21.717278    -21.717278
    3      -13.155448    -13.155448
    4       -9.606158     -9.606158
    5       -8.710659     -8.710659
    6       -7.769346     -7.769346
    7       -7.749479     -7.749479
    8       -7.532776     -7.532776
    9       -7.300232     -7.300232
   10       -6.830432     -6.830432
   11       -5.169025     -5.169025
   12       -4.857625     -4.857625
   13       -3.060731     -3.060731
   14       -1.888755     -1.888755
   15       -1.316417     -1.316417
   16       -1.260364     -1.260364
   17       -1.194311     -1.194311
   18       -0.725438     -0.725438
   19       -0.191854     -0.191854
   20        0.930502      0.930502
 