 vasp.5.3.5 31Mar14 (build Jun 04 2015 19:48:31) complex                        
  
 executed on             LinuxIFC date 2021.09.14  11:04:57
 running on   84 total cores
 distrk:  each k-point on   84 cores,    1 groups
 distr:  one band on NCORES_PER_BAND=  21 cores,    4 groups


--------------------------------------------------------------------------------------------------------


 INCAR:
 POTCAR:    PAW_PBE Ti 08Apr2002                  
 POTCAR:    PAW_PBE C 08Apr2002                   
 POTCAR:    PAW_PBE O 08Apr2002                   

 ----------------------------------------------------------------------------- 
|                                                                             |
|           W    W    AA    RRRRR   N    N  II  N    N   GGGG   !!!           |
|           W    W   A  A   R    R  NN   N  II  NN   N  G    G  !!!           |
|           W    W  A    A  R    R  N N  N  II  N N  N  G       !!!           |
|           W WW W  AAAAAA  RRRRR   N  N N  II  N  N N  G  GGG   !            |
|           WW  WW  A    A  R   R   N   NN  II  N   NN  G    G                |
|           W    W  A    A  R    R  N    N  II  N    N   GGGG   !!!           |
|                                                                             |
|      For optimal performance we recommend to set                            |
|        NCORE= 4 - approx SQRT( number of cores)                             |
|      NCORE specifies how many cores store one orbital (NPAR=cpu/NCORE).     |
|      This setting can  greatly improve the performance of VASP for DFT.     |
|      The default, NPAR=number of cores might be grossly inefficient         |
|      on modern multi-core architectures or massively parallel machines.     |
|      Do your own testing !!!!                                               |
|      Unfortunately you need to use the default for GW and RPA calculations. |
|      (for HF NCORE is supported but not extensively tested yet)             |
|                                                                             |
 ----------------------------------------------------------------------------- 

 POTCAR:    PAW_PBE Ti 08Apr2002                  
   VRHFIN =Ti: d3 s1                                                            
   LEXCH  = PE                                                                  
   EATOM  =    94.7928 eV,    6.9671 Ry                                         
                                                                                
   TITEL  = PAW_PBE Ti 08Apr2002                                                
   LULTRA =        F    use ultrasoft PP ?                                      
   IUNSCR =        1    unscreen: 0-lin 1-nonlin 2-no                           
   RPACOR =    2.200    partial core radius                                     
   POMASS =   47.880; ZVAL   =    4.000    mass and valenz                      
   RCORE  =    2.800    outmost cutoff radius                                   
   RWIGS  =    2.500; RWIGS  =    1.323    wigner-seitz radius (au A)           
   ENMAX  =  178.330; ENMIN  =  133.747 eV                                      
   RCLOC  =    2.215    cutoff for local pot                                    
   LCOR   =        T    correct aug charges                                     
   LPAW   =        T    paw PP                                                  
   EAUG   =  328.883                                                            
   DEXC   =    0.000                                                            
   RMAX   =    2.868    core radius for proj-oper                               
   RAUG   =    1.300    factor for augmentation sphere                          
   RDEP   =    2.885    radius for radial grids                                 
   RDEPT  =    2.320    core radius for aug-charge                              
                                                                                
   Atomic configuration                                                         
    9 entries                                                                   
     n  l   j            E        occ.                                          
     1  0  0.50     -4865.3608   2.0000                                         
     2  0  0.50      -533.1367   2.0000                                         
     2  1  1.50      -440.5031   6.0000                                         
     3  0  0.50       -59.3186   2.0000                                         
     3  1  1.50       -35.7012   6.0000                                         
     3  2  2.50        -1.9157   3.0000                                         
     4  0  0.50        -3.7291   1.0000                                         
     4  1  1.50        -4.0817   0.0000                                         
     4  3  2.50        -1.3606   0.0000                                         
   Description                                                                  
     l       E           TYP  RCUT    TYP  RCUT                                 
     2     -1.9156924     23  2.800                                             
     2     -0.4062961     23  2.800                                             
     0     -3.7290832     23  2.800                                             
     0     20.4087390     23  2.800                                             
     1     -5.4423304     23  2.800                                             
  local pseudopotential read in
  partial core-charges read in
  partial kinetic energy density read in
  atomic valenz-charges read in
  non local Contribution for L=           2  read in
    real space projection operators read in
  non local Contribution for L=           2  read in
    real space projection operators read in
  non local Contribution for L=           0  read in
    real space projection operators read in
  non local Contribution for L=           0  read in
    real space projection operators read in
  non local Contribution for L=           1  read in
    real space projection operators read in
    PAW grid and wavefunctions read in
 
   number of l-projection  operators is LMAX  =           5
   number of lm-projection operators is LMMAX =          15
 
 POTCAR:    PAW_PBE C 08Apr2002                   
   VRHFIN =C: s2p2                                                              
   LEXCH  = PE                                                                  
   EATOM  =   147.1560 eV,   10.8157 Ry                                         
                                                                                
   TITEL  = PAW_PBE C 08Apr2002                                                 
   LULTRA =        F    use ultrasoft PP ?                                      
   IUNSCR =        1    unscreen: 0-lin 1-nonlin 2-no                           
   RPACOR =    1.200    partial core radius                                     
   POMASS =   12.011; ZVAL   =    4.000    mass and valenz                      
   RCORE  =    1.500    outmost cutoff radius                                   
   RWIGS  =    1.630; RWIGS  =    0.863    wigner-seitz radius (au A)           
   ENMAX  =  400.000; ENMIN  =  300.000 eV                                      
   ICORE  =        2    local potential                                         
   LCOR   =        T    correct aug charges                                     
   LPAW   =        T    paw PP                                                  
   EAUG   =  644.873                                                            
   DEXC   =    0.000                                                            
   RMAX   =    1.529    core radius for proj-oper                               
   RAUG   =    1.300    factor for augmentation sphere                          
   RDEP   =    1.501    radius for radial grids                                 
   RDEPT  =    1.300    core radius for aug-charge                              
                                                                                
   Atomic configuration                                                         
    4 entries                                                                   
     n  l   j            E        occ.                                          
     1  0  0.50      -273.3789   2.0000                                         
     2  0  0.50       -13.7508   2.0000                                         
     2  1  0.50        -5.2854   2.0000                                         
     3  2  1.50        -5.4423   0.0000                                         
   Description                                                                  
     l       E           TYP  RCUT    TYP  RCUT                                 
     0    -13.7508458     23  1.200                                             
     0     -8.2022199     23  1.200                                             
     1     -5.2854383     23  1.500                                             
     1     34.0145650     23  1.500                                             
     2     -5.4423304      7  1.500                                             
  local pseudopotential read in
  partial core-charges read in
  partial kinetic energy density read in
  atomic valenz-charges read in
  non local Contribution for L=           0  read in
    real space projection operators read in
  non local Contribution for L=           0  read in
    real space projection operators read in
  non local Contribution for L=           1  read in
    real space projection operators read in
  non local Contribution for L=           1  read in
    real space projection operators read in
    PAW grid and wavefunctions read in
 
   number of l-projection  operators is LMAX  =           4
   number of lm-projection operators is LMMAX =           8
 
 POTCAR:    PAW_PBE O 08Apr2002                   
   VRHFIN =O: s2p4                                                              
   LEXCH  = PE                                                                  
   EATOM  =   432.3788 eV,   31.7789 Ry                                         
                                                                                
   TITEL  = PAW_PBE O 08Apr2002                                                 
   LULTRA =        F    use ultrasoft PP ?                                      
   IUNSCR =        1    unscreen: 0-lin 1-nonlin 2-no                           
   RPACOR =    1.200    partial core radius                                     
   POMASS =   16.000; ZVAL   =    6.000    mass and valenz                      
   RCORE  =    1.520    outmost cutoff radius                                   
   RWIGS  =    1.550; RWIGS  =    0.820    wigner-seitz radius (au A)           
   ENMAX  =  400.000; ENMIN  =  300.000 eV                                      
   ICORE  =        2    local potential                                         
   LCOR   =        T    correct aug charges                                     
   LPAW   =        T    paw PP                                                  
   EAUG   =  605.392                                                            
   DEXC   =    0.000                                                            
   RMAX   =    1.553    core radius for proj-oper                               
   RAUG   =    1.300    factor for augmentation sphere                          
   RDEP   =    1.550    radius for radial grids                                 
   RDEPT  =    1.329    core radius for aug-charge                              
                                                                                
   Atomic configuration                                                         
    4 entries                                                                   
     n  l   j            E        occ.                                          
     1  0  0.50      -514.6923   2.0000                                         
     2  0  0.50       -23.9615   2.0000                                         
     2  1  0.50        -9.0305   4.0000                                         
     3  2  1.50        -9.5241   0.0000                                         
   Description                                                                  
     l       E           TYP  RCUT    TYP  RCUT                                 
     0    -23.9615318     23  1.200                                             
     0     -9.5240782     23  1.200                                             
     1     -9.0304911     23  1.520                                             
     1      8.1634956     23  1.520                                             
     2     -9.5240782      7  1.500                                             
  local pseudopotential read in
  partial core-charges read in
  partial kinetic energy density read in
  kinetic energy density of atom read in
  atomic valenz-charges read in
  non local Contribution for L=           0  read in
    real space projection operators read in
  non local Contribution for L=           0  read in
    real space projection operators read in
  non local Contribution for L=           1  read in
    real space projection operators read in
  non local Contribution for L=           1  read in
    real space projection operators read in
    PAW grid and wavefunctions read in
 
   number of l-projection  operators is LMAX  =           4
   number of lm-projection operators is LMMAX =           8
 
  PAW_PBE Ti 08Apr2002                  :
 energy of atom  1       EATOM=  -94.7928
 kinetic energy error for atom=    0.0002 (will be added to EATOM!!)
  PAW_PBE C 08Apr2002                   :
 energy of atom  2       EATOM= -147.1560
 kinetic energy error for atom=    0.0076 (will be added to EATOM!!)
  PAW_PBE O 08Apr2002                   :
 energy of atom  3       EATOM= -432.3788
 kinetic energy error for atom=    0.0224 (will be added to EATOM!!)
 
 
 POSCAR:  ti2co2                                 
  positions in direct lattice
  velocities in cartesian coordinates
 exchange correlation table for  LEXCH =        8
   RHO(1)=    0.500       N(1)  =     2000
   RHO(2)=  100.500       N(2)  =     4000
 


--------------------------------------------------------------------------------------------------------


 ion  position               nearest neighbor table
   1  0.667  0.333  0.552-   5 1.98   5 1.98   5 1.98   3 2.19   3 2.19   3 2.19   2 3.15   2 3.15
                             2 3.15
   2  0.333  0.667  0.448-   4 1.98   4 1.98   4 1.98   3 2.19   3 2.19   3 2.19   1 3.15   1 3.15
                             1 3.15
   3  0.000  0.000  0.500-   1 2.19   2 2.19   1 2.19   2 2.19   2 2.19   1 2.19
   4  0.667  0.333  0.411-   2 1.98   2 1.98   2 1.98
   5  0.333  0.667  0.589-   1 1.98   1 1.98   1 1.98
 
  LATTYP: Found a hexagonal cell.
 ALAT       =     3.0322996396
 C/A-ratio  =     8.2445678102
  
  Lattice vectors:
  
 A1 = (   3.0322996396,   0.0000000000,   0.0000000000)
 A2 = (  -1.5161498199,   2.6260485199,   0.0000000000)
 A3 = (   0.0000000000,   0.0000000000,  25.0000000000)


Analysis of symmetry for initial positions (statically):
=====================================================================
 Subroutine PRICEL returns:
 Original cell was already a primitive cell.
 

 Routine SETGRP: Setting up the symmetry group for a 
 hexagonal supercell.


 Subroutine GETGRP returns: Found 12 space group operations
 (whereof 12 operations were pure point group operations)
 out of a pool of 24 trial point group operations.


The static configuration has the point symmetry D_3d.


Analysis of symmetry for dynamics (positions and initial velocities):
=====================================================================
 Subroutine PRICEL returns:
 Original cell was already a primitive cell.
 

 Routine SETGRP: Setting up the symmetry group for a 
 hexagonal supercell.


 Subroutine GETGRP returns: Found 12 space group operations
 (whereof 12 operations were pure point group operations)
 out of a pool of 24 trial point group operations.


The dynamic configuration has the point symmetry D_3d.


Analysis of magnetic symmetry:
=====================================================================
 Subroutine PRICEL returns:
 Original cell was already a primitive cell.
 

 Subroutine MAGSYM returns: Found 12 space group operations
 (whereof 12 operations were pure point group operations)
 out of a pool of 12 trial space group operations
 (whereof 12 operations were pure point group operations)
 and found also     1 'primitive' translations


The magnetic configuration has the point symmetry D_3d.
 
 
 KPOINTS: Total k points                          
  k-points in reciprocal lattice
Space group operators:
 irot       det(A)        alpha          n_x          n_y          n_z        tau_x        tau_y        tau_z
    1     1.000000     0.000000     1.000000     0.000000     0.000000     0.000000     0.000000     0.000000
    2    -1.000000     0.000000     1.000000     0.000000     0.000000     0.000000     0.000000     0.000000
    3     1.000000   120.000000     0.000000    -0.000000    -1.000000     0.000000     0.000000     0.000000
    4    -1.000000   120.000000     0.000000    -0.000000    -1.000000     0.000000     0.000000     0.000000
    5     1.000000   120.000000     0.000000     0.000000     1.000000     0.000000     0.000000     0.000000
    6    -1.000000   120.000000     0.000000     0.000000     1.000000     0.000000     0.000000     0.000000
    7     1.000000   179.999999    -1.000000    -0.000000     0.000000     0.000000     0.000000     0.000000
    8    -1.000000   179.999999    -1.000000    -0.000000     0.000000     0.000000     0.000000     0.000000
    9     1.000000   180.000000    -0.500000     0.866025    -0.000000     0.000000     0.000000     0.000000
   10    -1.000000   180.000000    -0.500000     0.866025    -0.000000     0.000000     0.000000     0.000000
   11     1.000000   180.000000     0.500000     0.866025    -0.000000     0.000000     0.000000     0.000000
   12    -1.000000   180.000000     0.500000     0.866025    -0.000000     0.000000     0.000000     0.000000


--------------------------------------------------------------------------------------------------------




 Dimension of arrays:
   k-points           NKPTS =   1161   k-points in BZ     NKDIM =   1161   number of bands    NBANDS=     20
   number of dos      NEDOS =   3000   number of ions     NIONS =      5
   non local maximal  LDIM  =      5   non local SUM 2l+1 LMDIM =     15
   total plane-waves  NPLWV = 110592
   max r-space proj   IRMAX =      1   max aug-charges    IRDMAX=  15934
   dimension x,y,z NGX =    24 NGY =   24 NGZ =  192
   dimension x,y,z NGXF=    36 NGYF=   36 NGZF=  280
   support grid    NGXF=    36 NGYF=   36 NGZF=  280
   ions per type =               2   1   2
 NGX,Y,Z   is equivalent  to a cutoff of  13.16, 13.16, 12.77 a.u.
 NGXF,Y,Z  is equivalent  to a cutoff of  19.74, 19.74, 18.62 a.u.


 I would recommend the setting:
   dimension x,y,z NGX =    22 NGY =   22 NGZ =  182
 SYSTEM =  Si_ML                                   
 POSCAR =   ti2co2                                 

 Startparameter for this run:
   NWRITE =      2    write-flag & timer
   PREC   = high      normal or accurate (medium, high low for compatibility)
   ISTART =      1    job   : 0-new  1-cont  2-samecut
   ICHARG =     11    charge: 1-file 2-atom 10-const
   ISPIN  =      2    spin polarized calculation?
   LNONCOLLINEAR =      F non collinear calculations
   LSORBIT =      F    spin-orbit coupling
   INIWAV =      1    electr: 0-lowe 1-rand  2-diag
   LASPH  =      F    aspherical Exc in radial PAW
   METAGGA=      F    non-selfconsistent MetaGGA calc.

 Electronic Relaxation 1
   ENCUT  =  500.0 eV  36.75 Ry    6.06 a.u.   5.53  5.53 45.58*2*pi/ulx,y,z
   ENINI  =  500.0     initial cutoff
   ENAUG  =  644.9 eV  augmentation charge cutoff
   NELM   =    200;   NELMIN=  2; NELMDL=  0     # of ELM steps 
   EDIFF  = 0.1E-05   stopping-criterion for ELM
   LREAL  =      F    real-space projection
   NLSPLINE    = F    spline interpolate recip. space projectors
   LCOMPAT=      F    compatible to vasp.4.4
   GGA_COMPAT  = T    GGA compatible to vasp.4.4-vasp.4.6
   LMAXPAW     = -100 max onsite density
   LMAXMIX     =    2 max onsite mixed and CHGCAR
   VOSKOWN=      0    Vosko Wilk Nusair interpolation
   ROPT   =    0.00000   0.00000   0.00000
 Ionic relaxation
   EDIFFG = -.1E-01   stopping-criterion for IOM
   NSW    =      0    number of steps for IOM
   NBLOCK =      1;   KBLOCK =      1    inner block; outer block 
   IBRION =     -1    ionic relax: 0-MD 1-quasi-New 2-CG
   NFREE  =      0    steps in history (QN), initial steepest desc. (CG)
   ISIF   =      2    stress and relaxation
   IWAVPR =     10    prediction:  0-non 1-charg 2-wave 3-comb
   ISYM   =      2    0-nonsym 1-usesym 2-fastsym
   LCORR  =      T    Harris-Foulkes like correction to forces

   POTIM  = 0.5000    time-step for ionic-motion
   TEIN   =    0.0    initial temperature
   TEBEG  =    0.0;   TEEND  =   0.0 temperature during run
   SMASS  =  -3.00    Nose mass-parameter (am)
   estimated Nose-frequenzy (Omega)   =  0.10E-29 period in steps =****** mass=  -0.210E-27a.u.
   SCALEE = 1.0000    scale energy and forces
   NPACO  =    256;   APACO  = 16.0  distance and # of slots for P.C.
   PSTRESS=    0.0 pullay stress

  Mass of Ions in am
   POMASS =  47.88 12.01 16.00
  Ionic Valenz
   ZVAL   =   4.00  4.00  6.00
  Atomic Wigner-Seitz radii
   RWIGS  =  -1.00 -1.00 -1.00
  virtual crystal weights 
   VCA    =   1.00  1.00  1.00
   NELECT =      24.0000    total number of electrons
   NUPDOWN=      -1.0000    fix difference up-down

 DOS related values:
   EMIN   =  10.00;   EMAX   =-10.00  energy-range for DOS
   EFERMI =   0.00
   ISMEAR =     0;   SIGMA  =   0.05  broadening in eV -4-tet -1-fermi 0-gaus

 Electronic relaxation 2 (details)
   IALGO  =     38    algorithm
   LDIAG  =      T    sub-space diagonalisation (order eigenvalues)
   LSUBROT=      F    optimize rotation matrix (better conditioning)
   TURBO    =      0    0=normal 1=particle mesh
   IRESTART =      0    0=no restart 2=restart with 2 vectors
   NREBOOT  =      0    no. of reboots
   NMIN     =      0    reboot dimension
   EREF     =   0.00    reference energy to select bands
   IMIX   =      4    mixing-type and parameters
     AMIX     =   0.40;   BMIX     =  1.00
     AMIX_MAG =   1.60;   BMIX_MAG =  1.00
     AMIN     =   0.10
     WC   =   100.;   INIMIX=   1;  MIXPRE=   1;  MAXMIX= -45

 Intra band minimization:
   WEIMIN = 0.0000     energy-eigenvalue tresh-hold
   EBREAK =  0.12E-07  absolut break condition
   DEPER  =   0.30     relativ break condition  

   TIME   =   0.40     timestep for ELM

  volume/ion in A,a.u.               =      39.81       268.68
  Fermi-wavevector in a.u.,A,eV,Ry     =   0.808736  1.528290  8.898951  0.654054
  Thomas-Fermi vector in A             =   1.917597
 
 Write flags
   LWAVE  =      F    write WAVECAR
   LCHARG =      F    write CHGCAR
   LVTOT  =      F    write LOCPOT, total local potential
   LVHAR  =      F    write LOCPOT, Hartree potential only
   LELF   =      F    write electronic localiz. function (ELF)
   LORBIT =     11    0 simple, 1 ext, 2 COOP (PROOUT)


 Dipole corrections
   LMONO  =      F    monopole corrections only (constant potential shift)
   LDIPOL =      T    correct potential (dipole corrections)
   IDIPOL =      3    1-x, 2-y, 3-z, 4-all directions 
   EPSILON=  1.0000000 bulk dielectric constant

 Exchange correlation treatment:
   GGA     =    --    GGA type
   LEXCH   =     8    internal setting for exchange type
   VOSKOWN=      0    Vosko Wilk Nusair interpolation
   LHFCALC =     F    Hartree Fock is set to
   LHFONE  =     F    Hartree Fock one center treatment
   AEXX    =    0.0000 exact exchange contribution

 Linear response parameters
   LEPSILON=     F    determine dielectric tensor
   LRPA    =     F    only Hartree local field effects (RPA)
   LNABLA  =     F    use nabla operator in PAW spheres
   LVEL    =     F    velocity operator in full k-point grid
   LINTERFAST=   F  fast interpolation
   KINTER  =     0    interpolate to denser k-point grid
   CSHIFT  =0.1000    complex shift for real part using Kramers Kronig
   OMEGAMAX=  -1.0    maximum frequency
   DEG_THRESHOLD= 0.2000000E-02 threshold for treating states as degnerate
   RTIME   =    0.100 relaxation time in fs

 Orbital magnetization related:
   ORBITALMAG=     F  switch on orbital magnetization
   LCHIMAG   =     F  perturbation theory with respect to B field
   DQ        =  0.001000  dq finite difference perturbation B field



--------------------------------------------------------------------------------------------------------


 Static calculation
 charge density and potential remain constant during run
 spin polarized calculation
 Variant of blocked Davidson
 Davidson routine will perform the subspace rotation
 perform sub-space diagonalisation
    after iterative eigenvector-optimisation
 no mixing
 using additional bands            8
 reciprocal scheme for non local part
 use partial core corrections
 calculate Harris-corrections to forces 
   (improved forces if not selfconsistent)
 use gradient corrections 
 WARNING: stress and forces are not correct
  (second derivative of E(xc) not defined)
 use of overlap-Matrix (Vanderbilt PP)
 Gauss-broadening in eV      SIGMA  =   0.05


--------------------------------------------------------------------------------------------------------


  energy-cutoff  :      500.00
  volume of cell :      199.07
      direct lattice vectors                 reciprocal lattice vectors
     3.032299640  0.000000000  0.000000000     0.329782712  0.190400138 -0.000000000
    -1.516149820  2.626048520  0.000000000    -0.000000000  0.380800276 -0.000000000
     0.000000000  0.000000000 25.000000000     0.000000000  0.000000000  0.040000000

  length of vectors
     3.032299640  3.032299640 25.000000000     0.380800276  0.380800276  0.040000000


 
 old parameters found on file WAVECAR:
  energy-cutoff  :      500.00
  volume of cell :      205.67
      direct lattice vectors                 reciprocal lattice vectors
     3.082097315  0.000000000  0.000000000     0.324454389  0.187323829 -0.000000000
    -1.541048658  2.669174572  0.000000000     0.000000000  0.374647657 -0.000000000
     0.000000000  0.000000000 25.000000000     0.000000000  0.000000000  0.040000000

  length of vectors

 
 k-points in units of 2pi/SCALE and weight: Total k points                          
   0.16489136  0.09520007 -0.00000000       0.001
   0.16192331  0.09005927 -0.00000000       0.001
   0.16192331  0.09044007 -0.00000000       0.001
   0.16192331  0.09082087 -0.00000000       0.001
   0.16192331  0.09120167 -0.00000000       0.001
   0.16192331  0.09158247 -0.00000000       0.001
   0.16192331  0.09196327 -0.00000000       0.001
   0.16192331  0.09234407 -0.00000000       0.001
   0.16192331  0.09272487 -0.00000000       0.001
   0.16192331  0.09310567 -0.00000000       0.001
   0.16192331  0.09348647 -0.00000000       0.001
   0.16192331  0.09386727 -0.00000000       0.001
   0.16192331  0.09424807 -0.00000000       0.001
   0.16192331  0.09462887 -0.00000000       0.001
   0.16192331  0.09500967 -0.00000000       0.001
   0.16192331  0.09539047 -0.00000000       0.001
   0.16192331  0.09577127 -0.00000000       0.001
   0.16192331  0.09615207 -0.00000000       0.001
   0.16192331  0.09653287 -0.00000000       0.001
   0.16192331  0.09691367 -0.00000000       0.001
   0.16225309  0.09024967 -0.00000000       0.001
   0.16225309  0.09063047 -0.00000000       0.001
   0.16225309  0.09101127 -0.00000000       0.001
   0.16225309  0.09139207 -0.00000000       0.001
   0.16225309  0.09177287 -0.00000000       0.001
   0.16225309  0.09215367 -0.00000000       0.001
   0.16225309  0.09253447 -0.00000000       0.001
   0.16225309  0.09291527 -0.00000000       0.001
   0.16225309  0.09329607 -0.00000000       0.001
   0.16225309  0.09367687 -0.00000000       0.001
   0.16225309  0.09405767 -0.00000000       0.001
   0.16225309  0.09443847 -0.00000000       0.001
   0.16225309  0.09481927 -0.00000000       0.001
   0.16225309  0.09520007 -0.00000000       0.001
   0.16225309  0.09558087 -0.00000000       0.001
   0.16225309  0.09596167 -0.00000000       0.001
   0.16225309  0.09634247 -0.00000000       0.001
   0.16225309  0.09672327 -0.00000000       0.001
   0.16225309  0.09710407 -0.00000000       0.001
   0.16258288  0.09044007 -0.00000000       0.001
   0.16258288  0.09082087 -0.00000000       0.001
   0.16258288  0.09120167 -0.00000000       0.001
   0.16258288  0.09158247 -0.00000000       0.001
   0.16258288  0.09196327 -0.00000000       0.001
   0.16258288  0.09234407 -0.00000000       0.001
   0.16258288  0.09272487 -0.00000000       0.001
   0.16258288  0.09310567 -0.00000000       0.001
   0.16258288  0.09348647 -0.00000000       0.001
   0.16258288  0.09386727 -0.00000000       0.001
   0.16258288  0.09424807 -0.00000000       0.001
   0.16258288  0.09462887 -0.00000000       0.001
   0.16258288  0.09500967 -0.00000000       0.001
   0.16258288  0.09539047 -0.00000000       0.001
   0.16258288  0.09577127 -0.00000000       0.001
   0.16258288  0.09615207 -0.00000000       0.001
   0.16258288  0.09653287 -0.00000000       0.001
   0.16258288  0.09691367 -0.00000000       0.001
   0.16258288  0.09729447 -0.00000000       0.001
   0.16291266  0.09063047 -0.00000000       0.001
   0.16291266  0.09101127 -0.00000000       0.001
   0.16291266  0.09139207 -0.00000000       0.001
   0.16291266  0.09177287 -0.00000000       0.001
   0.16291266  0.09215367 -0.00000000       0.001
   0.16291266  0.09253447 -0.00000000       0.001
   0.16291266  0.09291527 -0.00000000       0.001
   0.16291266  0.09329607 -0.00000000       0.001
   0.16291266  0.09367687 -0.00000000       0.001
   0.16291266  0.09405767 -0.00000000       0.001
   0.16291266  0.09443847 -0.00000000       0.001
   0.16291266  0.09481927 -0.00000000       0.001
   0.16291266  0.09520007 -0.00000000       0.001
   0.16291266  0.09558087 -0.00000000       0.001
   0.16291266  0.09596167 -0.00000000       0.001
   0.16291266  0.09634247 -0.00000000       0.001
   0.16291266  0.09672327 -0.00000000       0.001
   0.16291266  0.09710407 -0.00000000       0.001
   0.16291266  0.09748487 -0.00000000       0.001
   0.16324244  0.09082087 -0.00000000       0.001
   0.16324244  0.09120167 -0.00000000       0.001
   0.16324244  0.09158247 -0.00000000       0.001
   0.16324244  0.09196327 -0.00000000       0.001
   0.16324244  0.09234407 -0.00000000       0.001
   0.16324244  0.09272487 -0.00000000       0.001
   0.16324244  0.09310567 -0.00000000       0.001
   0.16324244  0.09348647 -0.00000000       0.001
   0.16324244  0.09386727 -0.00000000       0.001
   0.16324244  0.09424807 -0.00000000       0.001
   0.16324244  0.09462887 -0.00000000       0.001
   0.16324244  0.09500967 -0.00000000       0.001
   0.16324244  0.09539047 -0.00000000       0.001
   0.16324244  0.09577127 -0.00000000       0.001
   0.16324244  0.09615207 -0.00000000       0.001
   0.16324244  0.09653287 -0.00000000       0.001
   0.16324244  0.09691367 -0.00000000       0.001
   0.16324244  0.09729447 -0.00000000       0.001
   0.16324244  0.09767527 -0.00000000       0.001
   0.16357223  0.09101127 -0.00000000       0.001
   0.16357223  0.09139207 -0.00000000       0.001
   0.16357223  0.09177287 -0.00000000       0.001
   0.16357223  0.09215367 -0.00000000       0.001
   0.16357223  0.09253447 -0.00000000       0.001
   0.16357223  0.09291527 -0.00000000       0.001
   0.16357223  0.09329607 -0.00000000       0.001
   0.16357223  0.09367687 -0.00000000       0.001
   0.16357223  0.09405767 -0.00000000       0.001
   0.16357223  0.09443847 -0.00000000       0.001
   0.16357223  0.09481927 -0.00000000       0.001
   0.16357223  0.09520007 -0.00000000       0.001
   0.16357223  0.09558087 -0.00000000       0.001
   0.16357223  0.09596167 -0.00000000       0.001
   0.16357223  0.09634247 -0.00000000       0.001
   0.16357223  0.09672327 -0.00000000       0.001
   0.16357223  0.09710407 -0.00000000       0.001
   0.16357223  0.09748487 -0.00000000       0.001
   0.16357223  0.09786567 -0.00000000       0.001
   0.16390201  0.09120167 -0.00000000       0.001
   0.16390201  0.09158247 -0.00000000       0.001
   0.16390201  0.09196327 -0.00000000       0.001
   0.16390201  0.09234407 -0.00000000       0.001
   0.16390201  0.09272487 -0.00000000       0.001
   0.16390201  0.09310567 -0.00000000       0.001
   0.16390201  0.09348647 -0.00000000       0.001
   0.16390201  0.09386727 -0.00000000       0.001
   0.16390201  0.09424807 -0.00000000       0.001
   0.16390201  0.09462887 -0.00000000       0.001
   0.16390201  0.09500967 -0.00000000       0.001
   0.16390201  0.09539047 -0.00000000       0.001
   0.16390201  0.09577127 -0.00000000       0.001
   0.16390201  0.09615207 -0.00000000       0.001
   0.16390201  0.09653287 -0.00000000       0.001
   0.16390201  0.09691367 -0.00000000       0.001
   0.16390201  0.09729447 -0.00000000       0.001
   0.16390201  0.09767527 -0.00000000       0.001
   0.16390201  0.09805607 -0.00000000       0.001
   0.16423179  0.09139207 -0.00000000       0.001
   0.16423179  0.09177287 -0.00000000       0.001
   0.16423179  0.09215367 -0.00000000       0.001
   0.16423179  0.09253447 -0.00000000       0.001
   0.16423179  0.09291527 -0.00000000       0.001
   0.16423179  0.09329607 -0.00000000       0.001
   0.16423179  0.09367687 -0.00000000       0.001
   0.16423179  0.09405767 -0.00000000       0.001
   0.16423179  0.09443847 -0.00000000       0.001
   0.16423179  0.09481927 -0.00000000       0.001
   0.16423179  0.09520007 -0.00000000       0.001
   0.16423179  0.09558087 -0.00000000       0.001
   0.16423179  0.09596167 -0.00000000       0.001
   0.16423179  0.09634247 -0.00000000       0.001
   0.16423179  0.09672327 -0.00000000       0.001
   0.16423179  0.09710407 -0.00000000       0.001
   0.16423179  0.09748487 -0.00000000       0.001
   0.16423179  0.09786567 -0.00000000       0.001
   0.16423179  0.09824647 -0.00000000       0.001
   0.16456157  0.09158247 -0.00000000       0.001
   0.16456157  0.09196327 -0.00000000       0.001
   0.16456157  0.09234407 -0.00000000       0.001
   0.16456157  0.09272487 -0.00000000       0.001
   0.16456157  0.09310567 -0.00000000       0.001
   0.16456157  0.09348647 -0.00000000       0.001
   0.16456157  0.09386727 -0.00000000       0.001
   0.16456157  0.09424807 -0.00000000       0.001
   0.16456157  0.09462887 -0.00000000       0.001
   0.16456157  0.09500967 -0.00000000       0.001
   0.16456157  0.09539047 -0.00000000       0.001
   0.16456157  0.09577127 -0.00000000       0.001
   0.16456157  0.09615207 -0.00000000       0.001
   0.16456157  0.09653287 -0.00000000       0.001
   0.16456157  0.09691367 -0.00000000       0.001
   0.16456157  0.09729447 -0.00000000       0.001
   0.16456157  0.09767527 -0.00000000       0.001
   0.16456157  0.09805607 -0.00000000       0.001
   0.16456157  0.09843687 -0.00000000       0.001
   0.16489136  0.09177287 -0.00000000       0.001
   0.16489136  0.09215367 -0.00000000       0.001
   0.16489136  0.09253447 -0.00000000       0.001
   0.16489136  0.09291527 -0.00000000       0.001
   0.16489136  0.09329607 -0.00000000       0.001
   0.16489136  0.09367687 -0.00000000       0.001
   0.16489136  0.09405767 -0.00000000       0.001
   0.16489136  0.09443847 -0.00000000       0.001
   0.16489136  0.09481927 -0.00000000       0.001
   0.16489136  0.09558087 -0.00000000       0.001
   0.16489136  0.09596167 -0.00000000       0.001
   0.16489136  0.09634247 -0.00000000       0.001
   0.16489136  0.09672327 -0.00000000       0.001
   0.16489136  0.09710407 -0.00000000       0.001
   0.16489136  0.09748487 -0.00000000       0.001
   0.16489136  0.09786567 -0.00000000       0.001
   0.16489136  0.09824647 -0.00000000       0.001
   0.16489136  0.09862727 -0.00000000       0.001
   0.16522114  0.09196327 -0.00000000       0.001
   0.16522114  0.09234407 -0.00000000       0.001
   0.16522114  0.09272487 -0.00000000       0.001
   0.16522114  0.09310567 -0.00000000       0.001
   0.16522114  0.09348647 -0.00000000       0.001
   0.16522114  0.09386727 -0.00000000       0.001
   0.16522114  0.09424807 -0.00000000       0.001
   0.16522114  0.09462887 -0.00000000       0.001
   0.16522114  0.09500967 -0.00000000       0.001
   0.16522114  0.09539047 -0.00000000       0.001
   0.16522114  0.09577127 -0.00000000       0.001
   0.16522114  0.09615207 -0.00000000       0.001
   0.16522114  0.09653287 -0.00000000       0.001
   0.16522114  0.09691367 -0.00000000       0.001
   0.16522114  0.09729447 -0.00000000       0.001
   0.16522114  0.09767527 -0.00000000       0.001
   0.16522114  0.09805607 -0.00000000       0.001
   0.16522114  0.09843687 -0.00000000       0.001
   0.16522114  0.09881767 -0.00000000       0.001
   0.16555092  0.09215367 -0.00000000       0.001
   0.16555092  0.09253447 -0.00000000       0.001
   0.16555092  0.09291527 -0.00000000       0.001
   0.16555092  0.09329607 -0.00000000       0.001
   0.16555092  0.09367687 -0.00000000       0.001
   0.16555092  0.09405767 -0.00000000       0.001
   0.16555092  0.09443847 -0.00000000       0.001
   0.16555092  0.09481927 -0.00000000       0.001
   0.16555092  0.09520007 -0.00000000       0.001
   0.16555092  0.09558087 -0.00000000       0.001
   0.16555092  0.09596167 -0.00000000       0.001
   0.16555092  0.09634247 -0.00000000       0.001
   0.16555092  0.09672327 -0.00000000       0.001
   0.16555092  0.09710407 -0.00000000       0.001
   0.16555092  0.09748487 -0.00000000       0.001
   0.16555092  0.09786567 -0.00000000       0.001
   0.16555092  0.09824647 -0.00000000       0.001
   0.16555092  0.09862727 -0.00000000       0.001
   0.16555092  0.09900807 -0.00000000       0.001
   0.16588070  0.09234407 -0.00000000       0.001
   0.16588070  0.09272487 -0.00000000       0.001
   0.16588070  0.09310567 -0.00000000       0.001
   0.16588070  0.09348647 -0.00000000       0.001
   0.16588070  0.09386727 -0.00000000       0.001
   0.16588070  0.09424807 -0.00000000       0.001
   0.16588070  0.09462887 -0.00000000       0.001
   0.16588070  0.09500967 -0.00000000       0.001
   0.16588070  0.09539047 -0.00000000       0.001
   0.16588070  0.09577127 -0.00000000       0.001
   0.16588070  0.09615207 -0.00000000       0.001
   0.16588070  0.09653287 -0.00000000       0.001
   0.16588070  0.09691367 -0.00000000       0.001
   0.16588070  0.09729447 -0.00000000       0.001
   0.16588070  0.09767527 -0.00000000       0.001
   0.16588070  0.09805607 -0.00000000       0.001
   0.16588070  0.09843687 -0.00000000       0.001
   0.16588070  0.09881767 -0.00000000       0.001
   0.16588070  0.09919847 -0.00000000       0.001
   0.16621049  0.09253447 -0.00000000       0.001
   0.16621049  0.09291527 -0.00000000       0.001
   0.16621049  0.09329607 -0.00000000       0.001
   0.16621049  0.09367687 -0.00000000       0.001
   0.16621049  0.09405767 -0.00000000       0.001
   0.16621049  0.09443847 -0.00000000       0.001
   0.16621049  0.09481927 -0.00000000       0.001
   0.16621049  0.09520007 -0.00000000       0.001
   0.16621049  0.09558087 -0.00000000       0.001
   0.16621049  0.09596167 -0.00000000       0.001
   0.16621049  0.09634247 -0.00000000       0.001
   0.16621049  0.09672327 -0.00000000       0.001
   0.16621049  0.09710407 -0.00000000       0.001
   0.16621049  0.09748487 -0.00000000       0.001
   0.16621049  0.09786567 -0.00000000       0.001
   0.16621049  0.09824647 -0.00000000       0.001
   0.16621049  0.09862727 -0.00000000       0.001
   0.16621049  0.09900807 -0.00000000       0.001
   0.16621049  0.09938887 -0.00000000       0.001
   0.16654027  0.09272487 -0.00000000       0.001
   0.16654027  0.09310567 -0.00000000       0.001
   0.16654027  0.09348647 -0.00000000       0.001
   0.16654027  0.09386727 -0.00000000       0.001
   0.16654027  0.09424807 -0.00000000       0.001
   0.16654027  0.09462887 -0.00000000       0.001
   0.16654027  0.09500967 -0.00000000       0.001
   0.16654027  0.09539047 -0.00000000       0.001
   0.16654027  0.09577127 -0.00000000       0.001
   0.16654027  0.09615207 -0.00000000       0.001
   0.16654027  0.09653287 -0.00000000       0.001
   0.16654027  0.09691367 -0.00000000       0.001
   0.16654027  0.09729447 -0.00000000       0.001
   0.16654027  0.09767527 -0.00000000       0.001
   0.16654027  0.09805607 -0.00000000       0.001
   0.16654027  0.09843687 -0.00000000       0.001
   0.16654027  0.09881767 -0.00000000       0.001
   0.16654027  0.09919847 -0.00000000       0.001
   0.16654027  0.09957927 -0.00000000       0.001
   0.16687005  0.09291527 -0.00000000       0.001
   0.16687005  0.09329607 -0.00000000       0.001
   0.16687005  0.09367687 -0.00000000       0.001
   0.16687005  0.09405767 -0.00000000       0.001
   0.16687005  0.09443847 -0.00000000       0.001
   0.16687005  0.09481927 -0.00000000       0.001
   0.16687005  0.09520007 -0.00000000       0.001
   0.16687005  0.09558087 -0.00000000       0.001
   0.16687005  0.09596167 -0.00000000       0.001
   0.16687005  0.09634247 -0.00000000       0.001
   0.16687005  0.09672327 -0.00000000       0.001
   0.16687005  0.09710407 -0.00000000       0.001
   0.16687005  0.09748487 -0.00000000       0.001
   0.16687005  0.09786567 -0.00000000       0.001
   0.16687005  0.09824647 -0.00000000       0.001
   0.16687005  0.09862727 -0.00000000       0.001
   0.16687005  0.09900807 -0.00000000       0.001
   0.16687005  0.09938887 -0.00000000       0.001
   0.16687005  0.09976967 -0.00000000       0.001
   0.16719984  0.09310567 -0.00000000       0.001
   0.16719984  0.09348647 -0.00000000       0.001
   0.16719984  0.09386727 -0.00000000       0.001
   0.16719984  0.09424807 -0.00000000       0.001
   0.16719984  0.09462887 -0.00000000       0.001
   0.16719984  0.09500967 -0.00000000       0.001
   0.16719984  0.09539047 -0.00000000       0.001
   0.16719984  0.09577127 -0.00000000       0.001
   0.16719984  0.09615207 -0.00000000       0.001
   0.16719984  0.09653287 -0.00000000       0.001
   0.16719984  0.09691367 -0.00000000       0.001
   0.16719984  0.09729447 -0.00000000       0.001
   0.16719984  0.09767527 -0.00000000       0.001
   0.16719984  0.09805607 -0.00000000       0.001
   0.16719984  0.09843687 -0.00000000       0.001
   0.16719984  0.09881767 -0.00000000       0.001
   0.16719984  0.09919847 -0.00000000       0.001
   0.16719984  0.09957927 -0.00000000       0.001
   0.16719984  0.09996007 -0.00000000       0.001
   0.16752962  0.09329607 -0.00000000       0.001
   0.16752962  0.09367687 -0.00000000       0.001
   0.16752962  0.09405767 -0.00000000       0.001
   0.16752962  0.09443847 -0.00000000       0.001
   0.16752962  0.09481927 -0.00000000       0.001
   0.16752962  0.09520007 -0.00000000       0.001
   0.16752962  0.09558087 -0.00000000       0.001
   0.16752962  0.09596167 -0.00000000       0.001
   0.16752962  0.09634247 -0.00000000       0.001
   0.16752962  0.09672327 -0.00000000       0.001
   0.16752962  0.09710407 -0.00000000       0.001
   0.16752962  0.09748487 -0.00000000       0.001
   0.16752962  0.09786567 -0.00000000       0.001
   0.16752962  0.09824647 -0.00000000       0.001
   0.16752962  0.09862727 -0.00000000       0.001
   0.16752962  0.09900807 -0.00000000       0.001
   0.16752962  0.09938887 -0.00000000       0.001
   0.16752962  0.09976967 -0.00000000       0.001
   0.16752962  0.10015047 -0.00000000       0.001
   0.16785940  0.09348647 -0.00000000       0.001
   0.16785940  0.09386727 -0.00000000       0.001
   0.16785940  0.09424807 -0.00000000       0.001
   0.16785940  0.09462887 -0.00000000       0.001
   0.16785940  0.09500967 -0.00000000       0.001
   0.16785940  0.09539047 -0.00000000       0.001
   0.16785940  0.09577127 -0.00000000       0.001
   0.16785940  0.09615207 -0.00000000       0.001
   0.16785940  0.09653287 -0.00000000       0.001
   0.16785940  0.09691367 -0.00000000       0.001
   0.16785940  0.09729447 -0.00000000       0.001
   0.16785940  0.09767527 -0.00000000       0.001
   0.16785940  0.09805607 -0.00000000       0.001
   0.16785940  0.09843687 -0.00000000       0.001
   0.16785940  0.09881767 -0.00000000       0.001
   0.16785940  0.09919847 -0.00000000       0.001
   0.16785940  0.09957927 -0.00000000       0.001
   0.16785940  0.09996007 -0.00000000       0.001
   0.16785940  0.10034087 -0.00000000       0.001
   0.13521091  0.04379203 -0.00000000       0.001
   0.13521091  0.04760003 -0.00000000       0.001
   0.13521091  0.05140804 -0.00000000       0.001
   0.13521091  0.05521604 -0.00000000       0.001
   0.13521091  0.05902404 -0.00000000       0.001
   0.13521091  0.06283205 -0.00000000       0.001
   0.13521091  0.06664005 -0.00000000       0.001
   0.13521091  0.07044805 -0.00000000       0.001
   0.13521091  0.07425605 -0.00000000       0.001
   0.13521091  0.07806406 -0.00000000       0.001
   0.13521091  0.08187206 -0.00000000       0.001
   0.13521091  0.08568006 -0.00000000       0.001
   0.13521091  0.08948806 -0.00000000       0.001
   0.13521091  0.09329607 -0.00000000       0.001
   0.13521091  0.09710407 -0.00000000       0.001
   0.13521091  0.10091207 -0.00000000       0.001
   0.13521091  0.10472008 -0.00000000       0.001
   0.13521091  0.10852808 -0.00000000       0.001
   0.13521091  0.11233608 -0.00000000       0.001
   0.13850874  0.04569603 -0.00000000       0.001
   0.13850874  0.04950404 -0.00000000       0.001
   0.13850874  0.05331204 -0.00000000       0.001
   0.13850874  0.05712004 -0.00000000       0.001
   0.13850874  0.06092804 -0.00000000       0.001
   0.13850874  0.06473605 -0.00000000       0.001
   0.13850874  0.06854405 -0.00000000       0.001
   0.13850874  0.07235205 -0.00000000       0.001
   0.13850874  0.07616006 -0.00000000       0.001
   0.13850874  0.07996806 -0.00000000       0.001
   0.13850874  0.08377606 -0.00000000       0.001
   0.13850874  0.08758406 -0.00000000       0.001
   0.13850874  0.09139207 -0.00000000       0.001
   0.13850874  0.09520007 -0.00000000       0.001
   0.13850874  0.09900807 -0.00000000       0.001
   0.13850874  0.10281607 -0.00000000       0.001
   0.13850874  0.10662408 -0.00000000       0.001
   0.13850874  0.11043208 -0.00000000       0.001
   0.13850874  0.11424008 -0.00000000       0.001
   0.14180657  0.04760003 -0.00000000       0.001
   0.14180657  0.05140804 -0.00000000       0.001
   0.14180657  0.05521604 -0.00000000       0.001
   0.14180657  0.05902404 -0.00000000       0.001
   0.14180657  0.06283205 -0.00000000       0.001
   0.14180657  0.06664005 -0.00000000       0.001
   0.14180657  0.07044805 -0.00000000       0.001
   0.14180657  0.07425605 -0.00000000       0.001
   0.14180657  0.07806406 -0.00000000       0.001
   0.14180657  0.08187206 -0.00000000       0.001
   0.14180657  0.08568006 -0.00000000       0.001
   0.14180657  0.08948806 -0.00000000       0.001
   0.14180657  0.09329607 -0.00000000       0.001
   0.14180657  0.09710407 -0.00000000       0.001
   0.14180657  0.10091207 -0.00000000       0.001
   0.14180657  0.10472008 -0.00000000       0.001
   0.14180657  0.10852808 -0.00000000       0.001
   0.14180657  0.11233608 -0.00000000       0.001
   0.14180657  0.11614408 -0.00000000       0.001
   0.14510439  0.04950404 -0.00000000       0.001
   0.14510439  0.05331204 -0.00000000       0.001
   0.14510439  0.05712004 -0.00000000       0.001
   0.14510439  0.06092804 -0.00000000       0.001
   0.14510439  0.06473605 -0.00000000       0.001
   0.14510439  0.06854405 -0.00000000       0.001
   0.14510439  0.07235205 -0.00000000       0.001
   0.14510439  0.07616006 -0.00000000       0.001
   0.14510439  0.07996806 -0.00000000       0.001
   0.14510439  0.08377606 -0.00000000       0.001
   0.14510439  0.08758406 -0.00000000       0.001
   0.14510439  0.09139207 -0.00000000       0.001
   0.14510439  0.09520007 -0.00000000       0.001
   0.14510439  0.09900807 -0.00000000       0.001
   0.14510439  0.10281607 -0.00000000       0.001
   0.14510439  0.10662408 -0.00000000       0.001
   0.14510439  0.11043208 -0.00000000       0.001
   0.14510439  0.11424008 -0.00000000       0.001
   0.14510439  0.11804809 -0.00000000       0.001
   0.14840222  0.05140804 -0.00000000       0.001
   0.14840222  0.05521604 -0.00000000       0.001
   0.14840222  0.05902404 -0.00000000       0.001
   0.14840222  0.06283205 -0.00000000       0.001
   0.14840222  0.06664005 -0.00000000       0.001
   0.14840222  0.07044805 -0.00000000       0.001
   0.14840222  0.07425605 -0.00000000       0.001
   0.14840222  0.07806406 -0.00000000       0.001
   0.14840222  0.08187206 -0.00000000       0.001
   0.14840222  0.08568006 -0.00000000       0.001
   0.14840222  0.08948806 -0.00000000       0.001
   0.14840222  0.09329607 -0.00000000       0.001
   0.14840222  0.09710407 -0.00000000       0.001
   0.14840222  0.10091207 -0.00000000       0.001
   0.14840222  0.10472008 -0.00000000       0.001
   0.14840222  0.10852808 -0.00000000       0.001
   0.14840222  0.11233608 -0.00000000       0.001
   0.14840222  0.11614408 -0.00000000       0.001
   0.14840222  0.11995209 -0.00000000       0.001
   0.15170005  0.05331204 -0.00000000       0.001
   0.15170005  0.05712004 -0.00000000       0.001
   0.15170005  0.06092804 -0.00000000       0.001
   0.15170005  0.06473605 -0.00000000       0.001
   0.15170005  0.06854405 -0.00000000       0.001
   0.15170005  0.07235205 -0.00000000       0.001
   0.15170005  0.07616006 -0.00000000       0.001
   0.15170005  0.07996806 -0.00000000       0.001
   0.15170005  0.08377606 -0.00000000       0.001
   0.15170005  0.08758406 -0.00000000       0.001
   0.15170005  0.09139207 -0.00000000       0.001
   0.15170005  0.09520007 -0.00000000       0.001
   0.15170005  0.09900807 -0.00000000       0.001
   0.15170005  0.10281607 -0.00000000       0.001
   0.15170005  0.10662408 -0.00000000       0.001
   0.15170005  0.11043208 -0.00000000       0.001
   0.15170005  0.11424008 -0.00000000       0.001
   0.15170005  0.11804809 -0.00000000       0.001
   0.15170005  0.12185609 -0.00000000       0.001
   0.15499787  0.05521604 -0.00000000       0.001
   0.15499787  0.05902404 -0.00000000       0.001
   0.15499787  0.06283205 -0.00000000       0.001
   0.15499787  0.06664005 -0.00000000       0.001
   0.15499787  0.07044805 -0.00000000       0.001
   0.15499787  0.07425605 -0.00000000       0.001
   0.15499787  0.07806406 -0.00000000       0.001
   0.15499787  0.08187206 -0.00000000       0.001
   0.15499787  0.08568006 -0.00000000       0.001
   0.15499787  0.08948806 -0.00000000       0.001
   0.15499787  0.09329607 -0.00000000       0.001
   0.15499787  0.09710407 -0.00000000       0.001
   0.15499787  0.10091207 -0.00000000       0.001
   0.15499787  0.10472008 -0.00000000       0.001
   0.15499787  0.10852808 -0.00000000       0.001
   0.15499787  0.11233608 -0.00000000       0.001
   0.15499787  0.11614408 -0.00000000       0.001
   0.15499787  0.11995209 -0.00000000       0.001
   0.15499787  0.12376009 -0.00000000       0.001
   0.15829570  0.05712004 -0.00000000       0.001
   0.15829570  0.06092804 -0.00000000       0.001
   0.15829570  0.06473605 -0.00000000       0.001
   0.15829570  0.06854405 -0.00000000       0.001
   0.15829570  0.07235205 -0.00000000       0.001
   0.15829570  0.07616006 -0.00000000       0.001
   0.15829570  0.07996806 -0.00000000       0.001
   0.15829570  0.08377606 -0.00000000       0.001
   0.15829570  0.08758406 -0.00000000       0.001
   0.15829570  0.09139207 -0.00000000       0.001
   0.15829570  0.09520007 -0.00000000       0.001
   0.15829570  0.09900807 -0.00000000       0.001
   0.15829570  0.10281607 -0.00000000       0.001
   0.15829570  0.10662408 -0.00000000       0.001
   0.15829570  0.11043208 -0.00000000       0.001
   0.15829570  0.11424008 -0.00000000       0.001
   0.15829570  0.11804809 -0.00000000       0.001
   0.15829570  0.12185609 -0.00000000       0.001
   0.15829570  0.12566409 -0.00000000       0.001
   0.16159353  0.05902404 -0.00000000       0.001
   0.16159353  0.06283205 -0.00000000       0.001
   0.16159353  0.06664005 -0.00000000       0.001
   0.16159353  0.07044805 -0.00000000       0.001
   0.16159353  0.07425605 -0.00000000       0.001
   0.16159353  0.07806406 -0.00000000       0.001
   0.16159353  0.08187206 -0.00000000       0.001
   0.16159353  0.08568006 -0.00000000       0.001
   0.16159353  0.08948806 -0.00000000       0.001
   0.16159353  0.09329607 -0.00000000       0.001
   0.16159353  0.09710407 -0.00000000       0.001
   0.16159353  0.10091207 -0.00000000       0.001
   0.16159353  0.10472008 -0.00000000       0.001
   0.16159353  0.10852808 -0.00000000       0.001
   0.16159353  0.11233608 -0.00000000       0.001
   0.16159353  0.11614408 -0.00000000       0.001
   0.16159353  0.11995209 -0.00000000       0.001
   0.16159353  0.12376009 -0.00000000       0.001
   0.16159353  0.12756809 -0.00000000       0.001
   0.16489136  0.06092804 -0.00000000       0.001
   0.16489136  0.06473605 -0.00000000       0.001
   0.16489136  0.06854405 -0.00000000       0.001
   0.16489136  0.07235205 -0.00000000       0.001
   0.16489136  0.07616006 -0.00000000       0.001
   0.16489136  0.07996806 -0.00000000       0.001
   0.16489136  0.08377606 -0.00000000       0.001
   0.16489136  0.08758406 -0.00000000       0.001
   0.16489136  0.09139207 -0.00000000       0.001
   0.16489136  0.09900807 -0.00000000       0.001
   0.16489136  0.10281607 -0.00000000       0.001
   0.16489136  0.10662408 -0.00000000       0.001
   0.16489136  0.11043208 -0.00000000       0.001
   0.16489136  0.11424008 -0.00000000       0.001
   0.16489136  0.11804809 -0.00000000       0.001
   0.16489136  0.12185609 -0.00000000       0.001
   0.16489136  0.12566409 -0.00000000       0.001
   0.16489136  0.12947209 -0.00000000       0.001
   0.16818918  0.06283205 -0.00000000       0.001
   0.16818918  0.06664005 -0.00000000       0.001
   0.16818918  0.07044805 -0.00000000       0.001
   0.16818918  0.07425605 -0.00000000       0.001
   0.16818918  0.07806406 -0.00000000       0.001
   0.16818918  0.08187206 -0.00000000       0.001
   0.16818918  0.08568006 -0.00000000       0.001
   0.16818918  0.08948806 -0.00000000       0.001
   0.16818918  0.09329607 -0.00000000       0.001
   0.16818918  0.09710407 -0.00000000       0.001
   0.16818918  0.10091207 -0.00000000       0.001
   0.16818918  0.10472008 -0.00000000       0.001
   0.16818918  0.10852808 -0.00000000       0.001
   0.16818918  0.11233608 -0.00000000       0.001
   0.16818918  0.11614408 -0.00000000       0.001
   0.16818918  0.11995209 -0.00000000       0.001
   0.16818918  0.12376009 -0.00000000       0.001
   0.16818918  0.12756809 -0.00000000       0.001
   0.16818918  0.13137610 -0.00000000       0.001
   0.17148701  0.06473605 -0.00000000       0.001
   0.17148701  0.06854405 -0.00000000       0.001
   0.17148701  0.07235205 -0.00000000       0.001
   0.17148701  0.07616006 -0.00000000       0.001
   0.17148701  0.07996806 -0.00000000       0.001
   0.17148701  0.08377606 -0.00000000       0.001
   0.17148701  0.08758406 -0.00000000       0.001
   0.17148701  0.09139207 -0.00000000       0.001
   0.17148701  0.09520007 -0.00000000       0.001
   0.17148701  0.09900807 -0.00000000       0.001
   0.17148701  0.10281607 -0.00000000       0.001
   0.17148701  0.10662408 -0.00000000       0.001
   0.17148701  0.11043208 -0.00000000       0.001
   0.17148701  0.11424008 -0.00000000       0.001
   0.17148701  0.11804809 -0.00000000       0.001
   0.17148701  0.12185609 -0.00000000       0.001
   0.17148701  0.12566409 -0.00000000       0.001
   0.17148701  0.12947209 -0.00000000       0.001
   0.17148701  0.13328010 -0.00000000       0.001
   0.17478484  0.06664005 -0.00000000       0.001
   0.17478484  0.07044805 -0.00000000       0.001
   0.17478484  0.07425605 -0.00000000       0.001
   0.17478484  0.07806406 -0.00000000       0.001
   0.17478484  0.08187206 -0.00000000       0.001
   0.17478484  0.08568006 -0.00000000       0.001
   0.17478484  0.08948806 -0.00000000       0.001
   0.17478484  0.09329607 -0.00000000       0.001
   0.17478484  0.09710407 -0.00000000       0.001
   0.17478484  0.10091207 -0.00000000       0.001
   0.17478484  0.10472008 -0.00000000       0.001
   0.17478484  0.10852808 -0.00000000       0.001
   0.17478484  0.11233608 -0.00000000       0.001
   0.17478484  0.11614408 -0.00000000       0.001
   0.17478484  0.11995209 -0.00000000       0.001
   0.17478484  0.12376009 -0.00000000       0.001
   0.17478484  0.12756809 -0.00000000       0.001
   0.17478484  0.13137610 -0.00000000       0.001
   0.17478484  0.13518410 -0.00000000       0.001
   0.17808266  0.06854405 -0.00000000       0.001
   0.17808266  0.07235205 -0.00000000       0.001
   0.17808266  0.07616006 -0.00000000       0.001
   0.17808266  0.07996806 -0.00000000       0.001
   0.17808266  0.08377606 -0.00000000       0.001
   0.17808266  0.08758406 -0.00000000       0.001
   0.17808266  0.09139207 -0.00000000       0.001
   0.17808266  0.09520007 -0.00000000       0.001
   0.17808266  0.09900807 -0.00000000       0.001
   0.17808266  0.10281607 -0.00000000       0.001
   0.17808266  0.10662408 -0.00000000       0.001
   0.17808266  0.11043208 -0.00000000       0.001
   0.17808266  0.11424008 -0.00000000       0.001
   0.17808266  0.11804809 -0.00000000       0.001
   0.17808266  0.12185609 -0.00000000       0.001
   0.17808266  0.12566409 -0.00000000       0.001
   0.17808266  0.12947209 -0.00000000       0.001
   0.17808266  0.13328010 -0.00000000       0.001
   0.17808266  0.13708810 -0.00000000       0.001
   0.18138049  0.07044805 -0.00000000       0.001
   0.18138049  0.07425605 -0.00000000       0.001
   0.18138049  0.07806406 -0.00000000       0.001
   0.18138049  0.08187206 -0.00000000       0.001
   0.18138049  0.08568006 -0.00000000       0.001
   0.18138049  0.08948806 -0.00000000       0.001
   0.18138049  0.09329607 -0.00000000       0.001
   0.18138049  0.09710407 -0.00000000       0.001
   0.18138049  0.10091207 -0.00000000       0.001
   0.18138049  0.10472008 -0.00000000       0.001
   0.18138049  0.10852808 -0.00000000       0.001
   0.18138049  0.11233608 -0.00000000       0.001
   0.18138049  0.11614408 -0.00000000       0.001
   0.18138049  0.11995209 -0.00000000       0.001
   0.18138049  0.12376009 -0.00000000       0.001
   0.18138049  0.12756809 -0.00000000       0.001
   0.18138049  0.13137610 -0.00000000       0.001
   0.18138049  0.13518410 -0.00000000       0.001
   0.18138049  0.13899210 -0.00000000       0.001
   0.18467832  0.07235205 -0.00000000       0.001
   0.18467832  0.07616006 -0.00000000       0.001
   0.18467832  0.07996806 -0.00000000       0.001
   0.18467832  0.08377606 -0.00000000       0.001
   0.18467832  0.08758406 -0.00000000       0.001
   0.18467832  0.09139207 -0.00000000       0.001
   0.18467832  0.09520007 -0.00000000       0.001
   0.18467832  0.09900807 -0.00000000       0.001
   0.18467832  0.10281607 -0.00000000       0.001
   0.18467832  0.10662408 -0.00000000       0.001
   0.18467832  0.11043208 -0.00000000       0.001
   0.18467832  0.11424008 -0.00000000       0.001
   0.18467832  0.11804809 -0.00000000       0.001
   0.18467832  0.12185609 -0.00000000       0.001
   0.18467832  0.12566409 -0.00000000       0.001
   0.18467832  0.12947209 -0.00000000       0.001
   0.18467832  0.13328010 -0.00000000       0.001
   0.18467832  0.13708810 -0.00000000       0.001
   0.18467832  0.14089610 -0.00000000       0.001
   0.18797615  0.07425605 -0.00000000       0.001
   0.18797615  0.07806406 -0.00000000       0.001
   0.18797615  0.08187206 -0.00000000       0.001
   0.18797615  0.08568006 -0.00000000       0.001
   0.18797615  0.08948806 -0.00000000       0.001
   0.18797615  0.09329607 -0.00000000       0.001
   0.18797615  0.09710407 -0.00000000       0.001
   0.18797615  0.10091207 -0.00000000       0.001
   0.18797615  0.10472008 -0.00000000       0.001
   0.18797615  0.10852808 -0.00000000       0.001
   0.18797615  0.11233608 -0.00000000       0.001
   0.18797615  0.11614408 -0.00000000       0.001
   0.18797615  0.11995209 -0.00000000       0.001
   0.18797615  0.12376009 -0.00000000       0.001
   0.18797615  0.12756809 -0.00000000       0.001
   0.18797615  0.13137610 -0.00000000       0.001
   0.18797615  0.13518410 -0.00000000       0.001
   0.18797615  0.13899210 -0.00000000       0.001
   0.18797615  0.14280010 -0.00000000       0.001
   0.19127397  0.07616006 -0.00000000       0.001
   0.19127397  0.07996806 -0.00000000       0.001
   0.19127397  0.08377606 -0.00000000       0.001
   0.19127397  0.08758406 -0.00000000       0.001
   0.19127397  0.09139207 -0.00000000       0.001
   0.19127397  0.09520007 -0.00000000       0.001
   0.19127397  0.09900807 -0.00000000       0.001
   0.19127397  0.10281607 -0.00000000       0.001
   0.19127397  0.10662408 -0.00000000       0.001
   0.19127397  0.11043208 -0.00000000       0.001
   0.19127397  0.11424008 -0.00000000       0.001
   0.19127397  0.11804809 -0.00000000       0.001
   0.19127397  0.12185609 -0.00000000       0.001
   0.19127397  0.12566409 -0.00000000       0.001
   0.19127397  0.12947209 -0.00000000       0.001
   0.19127397  0.13328010 -0.00000000       0.001
   0.19127397  0.13708810 -0.00000000       0.001
   0.19127397  0.14089610 -0.00000000       0.001
   0.19127397  0.14470410 -0.00000000       0.001
   0.19457180  0.07806406 -0.00000000       0.001
   0.19457180  0.08187206 -0.00000000       0.001
   0.19457180  0.08568006 -0.00000000       0.001
   0.19457180  0.08948806 -0.00000000       0.001
   0.19457180  0.09329607 -0.00000000       0.001
   0.19457180  0.09710407 -0.00000000       0.001
   0.19457180  0.10091207 -0.00000000       0.001
   0.19457180  0.10472008 -0.00000000       0.001
   0.19457180  0.10852808 -0.00000000       0.001
   0.19457180  0.11233608 -0.00000000       0.001
   0.19457180  0.11614408 -0.00000000       0.001
   0.19457180  0.11995209 -0.00000000       0.001
   0.19457180  0.12376009 -0.00000000       0.001
   0.19457180  0.12756809 -0.00000000       0.001
   0.19457180  0.13137610 -0.00000000       0.001
   0.19457180  0.13518410 -0.00000000       0.001
   0.19457180  0.13899210 -0.00000000       0.001
   0.19457180  0.14280010 -0.00000000       0.001
   0.19457180  0.14660811 -0.00000000       0.001
   0.09893481 -0.01904001 -0.00000000       0.001
   0.09893481 -0.01142401 -0.00000000       0.001
   0.09893481 -0.00380800 -0.00000000       0.001
   0.09893481  0.00380800 -0.00000000       0.001
   0.09893481  0.01142401 -0.00000000       0.001
   0.09893481  0.01904001 -0.00000000       0.001
   0.09893481  0.02665602 -0.00000000       0.001
   0.09893481  0.03427202 -0.00000000       0.001
   0.09893481  0.04188803 -0.00000000       0.001
   0.09893481  0.04950404 -0.00000000       0.001
   0.09893481  0.05712004 -0.00000000       0.001
   0.09893481  0.06473605 -0.00000000       0.001
   0.09893481  0.07235205 -0.00000000       0.001
   0.09893481  0.07996806 -0.00000000       0.001
   0.09893481  0.08758406 -0.00000000       0.001
   0.09893481  0.09520007 -0.00000000       0.001
   0.09893481  0.10281607 -0.00000000       0.001
   0.09893481  0.11043208 -0.00000000       0.001
   0.09893481  0.11804809 -0.00000000       0.001
   0.09893481  0.12566409 -0.00000000       0.001
   0.09893481  0.13328010 -0.00000000       0.001
   0.10553047 -0.01523201 -0.00000000       0.001
   0.10553047 -0.00761601 -0.00000000       0.001
   0.10553047  0.00000000 -0.00000000       0.001
   0.10553047  0.00761601 -0.00000000       0.001
   0.10553047  0.01523201 -0.00000000       0.001
   0.10553047  0.02284802 -0.00000000       0.001
   0.10553047  0.03046402 -0.00000000       0.001
   0.10553047  0.03808003 -0.00000000       0.001
   0.10553047  0.04569603 -0.00000000       0.001
   0.10553047  0.05331204 -0.00000000       0.001
   0.10553047  0.06092804 -0.00000000       0.001
   0.10553047  0.06854405 -0.00000000       0.001
   0.10553047  0.07616006 -0.00000000       0.001
   0.10553047  0.08377606 -0.00000000       0.001
   0.10553047  0.09139207 -0.00000000       0.001
   0.10553047  0.09900807 -0.00000000       0.001
   0.10553047  0.10662408 -0.00000000       0.001
   0.10553047  0.11424008 -0.00000000       0.001
   0.10553047  0.12185609 -0.00000000       0.001
   0.10553047  0.12947209 -0.00000000       0.001
   0.10553047  0.13708810 -0.00000000       0.001
   0.11212612 -0.01142401 -0.00000000       0.001
   0.11212612 -0.00380800 -0.00000000       0.001
   0.11212612  0.00380800 -0.00000000       0.001
   0.11212612  0.01142401 -0.00000000       0.001
   0.11212612  0.01904001 -0.00000000       0.001
   0.11212612  0.02665602 -0.00000000       0.001
   0.11212612  0.03427202 -0.00000000       0.001
   0.11212612  0.04188803 -0.00000000       0.001
   0.11212612  0.04950404 -0.00000000       0.001
   0.11212612  0.05712004 -0.00000000       0.001
   0.11212612  0.06473605 -0.00000000       0.001
   0.11212612  0.07235205 -0.00000000       0.001
   0.11212612  0.07996806 -0.00000000       0.001
   0.11212612  0.08758406 -0.00000000       0.001
   0.11212612  0.09520007 -0.00000000       0.001
   0.11212612  0.10281607 -0.00000000       0.001
   0.11212612  0.11043208 -0.00000000       0.001
   0.11212612  0.11804809 -0.00000000       0.001
   0.11212612  0.12566409 -0.00000000       0.001
   0.11212612  0.13328010 -0.00000000       0.001
   0.11212612  0.14089610 -0.00000000       0.001
   0.11872178 -0.00761601 -0.00000000       0.001
   0.11872178  0.00000000 -0.00000000       0.001
   0.11872178  0.00761601 -0.00000000       0.001
   0.11872178  0.01523201 -0.00000000       0.001
   0.11872178  0.02284802 -0.00000000       0.001
   0.11872178  0.03046402 -0.00000000       0.001
   0.11872178  0.03808003 -0.00000000       0.001
   0.11872178  0.04569603 -0.00000000       0.001
   0.11872178  0.05331204 -0.00000000       0.001
   0.11872178  0.06092804 -0.00000000       0.001
   0.11872178  0.06854405 -0.00000000       0.001
   0.11872178  0.07616006 -0.00000000       0.001
   0.11872178  0.08377606 -0.00000000       0.001
   0.11872178  0.09139207 -0.00000000       0.001
   0.11872178  0.09900807 -0.00000000       0.001
   0.11872178  0.10662408 -0.00000000       0.001
   0.11872178  0.11424008 -0.00000000       0.001
   0.11872178  0.12185609 -0.00000000       0.001
   0.11872178  0.12947209 -0.00000000       0.001
   0.11872178  0.13708810 -0.00000000       0.001
   0.11872178  0.14470410 -0.00000000       0.001
   0.12531743 -0.00380800 -0.00000000       0.001
   0.12531743  0.00380800 -0.00000000       0.001
   0.12531743  0.01142401 -0.00000000       0.001
   0.12531743  0.01904001 -0.00000000       0.001
   0.12531743  0.02665602 -0.00000000       0.001
   0.12531743  0.03427202 -0.00000000       0.001
   0.12531743  0.04188803 -0.00000000       0.001
   0.12531743  0.04950404 -0.00000000       0.001
   0.12531743  0.05712004 -0.00000000       0.001
   0.12531743  0.06473605 -0.00000000       0.001
   0.12531743  0.07235205 -0.00000000       0.001
   0.12531743  0.07996806 -0.00000000       0.001
   0.12531743  0.08758406 -0.00000000       0.001
   0.12531743  0.09520007 -0.00000000       0.001
   0.12531743  0.10281607 -0.00000000       0.001
   0.12531743  0.11043208 -0.00000000       0.001
   0.12531743  0.11804809 -0.00000000       0.001
   0.12531743  0.12566409 -0.00000000       0.001
   0.12531743  0.13328010 -0.00000000       0.001
   0.12531743  0.14089610 -0.00000000       0.001
   0.12531743  0.14851211 -0.00000000       0.001
   0.13191308  0.00000000 -0.00000000       0.001
   0.13191308  0.00761601 -0.00000000       0.001
   0.13191308  0.01523201 -0.00000000       0.001
   0.13191308  0.02284802 -0.00000000       0.001
   0.13191308  0.03046402 -0.00000000       0.001
   0.13191308  0.03808003 -0.00000000       0.001
   0.13191308  0.04569603 -0.00000000       0.001
   0.13191308  0.05331204 -0.00000000       0.001
   0.13191308  0.06092804 -0.00000000       0.001
   0.13191308  0.06854405 -0.00000000       0.001
   0.13191308  0.07616006 -0.00000000       0.001
   0.13191308  0.08377606 -0.00000000       0.001
   0.13191308  0.09139207 -0.00000000       0.001
   0.13191308  0.09900807 -0.00000000       0.001
   0.13191308  0.10662408 -0.00000000       0.001
   0.13191308  0.11424008 -0.00000000       0.001
   0.13191308  0.12185609 -0.00000000       0.001
   0.13191308  0.12947209 -0.00000000       0.001
   0.13191308  0.13708810 -0.00000000       0.001
   0.13191308  0.14470410 -0.00000000       0.001
   0.13191308  0.15232011 -0.00000000       0.001
   0.13850874  0.00380800 -0.00000000       0.001
   0.13850874  0.01142401 -0.00000000       0.001
   0.13850874  0.01904001 -0.00000000       0.001
   0.13850874  0.02665602 -0.00000000       0.001
   0.13850874  0.03427202 -0.00000000       0.001
   0.13850874  0.04188803 -0.00000000       0.001
   0.13850874  0.04950404 -0.00000000       0.001
   0.13850874  0.05712004 -0.00000000       0.001
   0.13850874  0.06473605 -0.00000000       0.001
   0.13850874  0.07235205 -0.00000000       0.001
   0.13850874  0.07996806 -0.00000000       0.001
   0.13850874  0.08758406 -0.00000000       0.001
   0.13850874  0.09520007 -0.00000000       0.001
   0.13850874  0.10281607 -0.00000000       0.001
   0.13850874  0.11043208 -0.00000000       0.001
   0.13850874  0.11804809 -0.00000000       0.001
   0.13850874  0.12566409 -0.00000000       0.001
   0.13850874  0.13328010 -0.00000000       0.001
   0.13850874  0.14089610 -0.00000000       0.001
   0.13850874  0.14851211 -0.00000000       0.001
   0.13850874  0.15612811 -0.00000000       0.001
   0.14510439  0.00761601 -0.00000000       0.001
   0.14510439  0.01523201 -0.00000000       0.001
   0.14510439  0.02284802 -0.00000000       0.001
   0.14510439  0.03046402 -0.00000000       0.001
   0.14510439  0.03808003 -0.00000000       0.001
   0.14510439  0.04569603 -0.00000000       0.001
   0.14510439  0.05331204 -0.00000000       0.001
   0.14510439  0.06092804 -0.00000000       0.001
   0.14510439  0.06854405 -0.00000000       0.001
   0.14510439  0.07616006 -0.00000000       0.001
   0.14510439  0.08377606 -0.00000000       0.001
   0.14510439  0.09139207 -0.00000000       0.001
   0.14510439  0.09900807 -0.00000000       0.001
   0.14510439  0.10662408 -0.00000000       0.001
   0.14510439  0.11424008 -0.00000000       0.001
   0.14510439  0.12185609 -0.00000000       0.001
   0.14510439  0.12947209 -0.00000000       0.001
   0.14510439  0.13708810 -0.00000000       0.001
   0.14510439  0.14470410 -0.00000000       0.001
   0.14510439  0.15232011 -0.00000000       0.001
   0.14510439  0.15993612 -0.00000000       0.001
   0.15170005  0.01142401 -0.00000000       0.001
   0.15170005  0.01904001 -0.00000000       0.001
   0.15170005  0.02665602 -0.00000000       0.001
   0.15170005  0.03427202 -0.00000000       0.001
   0.15170005  0.04188803 -0.00000000       0.001
   0.15170005  0.04950404 -0.00000000       0.001
   0.15170005  0.05712004 -0.00000000       0.001
   0.15170005  0.06473605 -0.00000000       0.001
   0.15170005  0.07235205 -0.00000000       0.001
   0.15170005  0.07996806 -0.00000000       0.001
   0.15170005  0.08758406 -0.00000000       0.001
   0.15170005  0.09520007 -0.00000000       0.001
   0.15170005  0.10281607 -0.00000000       0.001
   0.15170005  0.11043208 -0.00000000       0.001
   0.15170005  0.11804809 -0.00000000       0.001
   0.15170005  0.12566409 -0.00000000       0.001
   0.15170005  0.13328010 -0.00000000       0.001
   0.15170005  0.14089610 -0.00000000       0.001
   0.15170005  0.14851211 -0.00000000       0.001
   0.15170005  0.15612811 -0.00000000       0.001
   0.15170005  0.16374412 -0.00000000       0.001
   0.15829570  0.01523201 -0.00000000       0.001
   0.15829570  0.02284802 -0.00000000       0.001
   0.15829570  0.03046402 -0.00000000       0.001
   0.15829570  0.03808003 -0.00000000       0.001
   0.15829570  0.04569603 -0.00000000       0.001
   0.15829570  0.05331204 -0.00000000       0.001
   0.15829570  0.06092804 -0.00000000       0.001
   0.15829570  0.06854405 -0.00000000       0.001
   0.15829570  0.07616006 -0.00000000       0.001
   0.15829570  0.08377606 -0.00000000       0.001
   0.15829570  0.09139207 -0.00000000       0.001
   0.15829570  0.09900807 -0.00000000       0.001
   0.15829570  0.10662408 -0.00000000       0.001
   0.15829570  0.11424008 -0.00000000       0.001
   0.15829570  0.12185609 -0.00000000       0.001
   0.15829570  0.12947209 -0.00000000       0.001
   0.15829570  0.13708810 -0.00000000       0.001
   0.15829570  0.14470410 -0.00000000       0.001
   0.15829570  0.15232011 -0.00000000       0.001
   0.15829570  0.15993612 -0.00000000       0.001
   0.15829570  0.16755212 -0.00000000       0.001
   0.16489136  0.01904001 -0.00000000       0.001
   0.16489136  0.02665602 -0.00000000       0.001
   0.16489136  0.03427202 -0.00000000       0.001
   0.16489136  0.04188803 -0.00000000       0.001
   0.16489136  0.04950404 -0.00000000       0.001
   0.16489136  0.05712004 -0.00000000       0.001
   0.16489136  0.06473605 -0.00000000       0.001
   0.16489136  0.07235205 -0.00000000       0.001
   0.16489136  0.07996806 -0.00000000       0.001
   0.16489136  0.08758406 -0.00000000       0.001
   0.16489136  0.10281607 -0.00000000       0.001
   0.16489136  0.11043208 -0.00000000       0.001
   0.16489136  0.11804809 -0.00000000       0.001
   0.16489136  0.12566409 -0.00000000       0.001
   0.16489136  0.13328010 -0.00000000       0.001
   0.16489136  0.14089610 -0.00000000       0.001
   0.16489136  0.14851211 -0.00000000       0.001
   0.16489136  0.15612811 -0.00000000       0.001
   0.16489136  0.16374412 -0.00000000       0.001
   0.16489136  0.17136012 -0.00000000       0.001
   0.17148701  0.02284802 -0.00000000       0.001
   0.17148701  0.03046402 -0.00000000       0.001
   0.17148701  0.03808003 -0.00000000       0.001
   0.17148701  0.04569603 -0.00000000       0.001
   0.17148701  0.05331204 -0.00000000       0.001
   0.17148701  0.06092804 -0.00000000       0.001
   0.17148701  0.06854405 -0.00000000       0.001
   0.17148701  0.07616006 -0.00000000       0.001
   0.17148701  0.08377606 -0.00000000       0.001
   0.17148701  0.09139207 -0.00000000       0.001
   0.17148701  0.09900807 -0.00000000       0.001
   0.17148701  0.10662408 -0.00000000       0.001
   0.17148701  0.11424008 -0.00000000       0.001
   0.17148701  0.12185609 -0.00000000       0.001
   0.17148701  0.12947209 -0.00000000       0.001
   0.17148701  0.13708810 -0.00000000       0.001
   0.17148701  0.14470410 -0.00000000       0.001
   0.17148701  0.15232011 -0.00000000       0.001
   0.17148701  0.15993612 -0.00000000       0.001
   0.17148701  0.16755212 -0.00000000       0.001
   0.17148701  0.17516813 -0.00000000       0.001
   0.17808266  0.02665602 -0.00000000       0.001
   0.17808266  0.03427202 -0.00000000       0.001
   0.17808266  0.04188803 -0.00000000       0.001
   0.17808266  0.04950404 -0.00000000       0.001
   0.17808266  0.05712004 -0.00000000       0.001
   0.17808266  0.06473605 -0.00000000       0.001
   0.17808266  0.07235205 -0.00000000       0.001
   0.17808266  0.07996806 -0.00000000       0.001
   0.17808266  0.08758406 -0.00000000       0.001
   0.17808266  0.09520007 -0.00000000       0.001
   0.17808266  0.10281607 -0.00000000       0.001
   0.17808266  0.11043208 -0.00000000       0.001
   0.17808266  0.11804809 -0.00000000       0.001
   0.17808266  0.12566409 -0.00000000       0.001
   0.17808266  0.13328010 -0.00000000       0.001
   0.17808266  0.14089610 -0.00000000       0.001
   0.17808266  0.14851211 -0.00000000       0.001
   0.17808266  0.15612811 -0.00000000       0.001
   0.17808266  0.16374412 -0.00000000       0.001
   0.17808266  0.17136012 -0.00000000       0.001
   0.17808266  0.17897613 -0.00000000       0.001
   0.18467832  0.03046402 -0.00000000       0.001
   0.18467832  0.03808003 -0.00000000       0.001
   0.18467832  0.04569603 -0.00000000       0.001
   0.18467832  0.05331204 -0.00000000       0.001
   0.18467832  0.06092804 -0.00000000       0.001
   0.18467832  0.06854405 -0.00000000       0.001
   0.18467832  0.07616006 -0.00000000       0.001
   0.18467832  0.08377606 -0.00000000       0.001
   0.18467832  0.09139207 -0.00000000       0.001
   0.18467832  0.09900807 -0.00000000       0.001
   0.18467832  0.10662408 -0.00000000       0.001
   0.18467832  0.11424008 -0.00000000       0.001
   0.18467832  0.12185609 -0.00000000       0.001
   0.18467832  0.12947209 -0.00000000       0.001
   0.18467832  0.13708810 -0.00000000       0.001
   0.18467832  0.14470410 -0.00000000       0.001
   0.18467832  0.15232011 -0.00000000       0.001
   0.18467832  0.15993612 -0.00000000       0.001
   0.18467832  0.16755212 -0.00000000       0.001
   0.18467832  0.17516813 -0.00000000       0.001
   0.18467832  0.18278413 -0.00000000       0.001
   0.19127397  0.03427202 -0.00000000       0.001
   0.19127397  0.04188803 -0.00000000       0.001
   0.19127397  0.04950404 -0.00000000       0.001
   0.19127397  0.05712004 -0.00000000       0.001
   0.19127397  0.06473605 -0.00000000       0.001
   0.19127397  0.07235205 -0.00000000       0.001
   0.19127397  0.07996806 -0.00000000       0.001
   0.19127397  0.08758406 -0.00000000       0.001
   0.19127397  0.09520007 -0.00000000       0.001
   0.19127397  0.10281607 -0.00000000       0.001
   0.19127397  0.11043208 -0.00000000       0.001
   0.19127397  0.11804809 -0.00000000       0.001
   0.19127397  0.12566409 -0.00000000       0.001
   0.19127397  0.13328010 -0.00000000       0.001
   0.19127397  0.14089610 -0.00000000       0.001
   0.19127397  0.14851211 -0.00000000       0.001
   0.19127397  0.15612811 -0.00000000       0.001
   0.19127397  0.16374412 -0.00000000       0.001
   0.19127397  0.17136012 -0.00000000       0.001
   0.19127397  0.17897613 -0.00000000       0.001
   0.19127397  0.18659214 -0.00000000       0.001
   0.19786963  0.03808003 -0.00000000       0.001
   0.19786963  0.04569603 -0.00000000       0.001
   0.19786963  0.05331204 -0.00000000       0.001
   0.19786963  0.06092804 -0.00000000       0.001
   0.19786963  0.06854405 -0.00000000       0.001
   0.19786963  0.07616006 -0.00000000       0.001
   0.19786963  0.08377606 -0.00000000       0.001
   0.19786963  0.09139207 -0.00000000       0.001
   0.19786963  0.09900807 -0.00000000       0.001
   0.19786963  0.10662408 -0.00000000       0.001
   0.19786963  0.11424008 -0.00000000       0.001
   0.19786963  0.12185609 -0.00000000       0.001
   0.19786963  0.12947209 -0.00000000       0.001
   0.19786963  0.13708810 -0.00000000       0.001
   0.19786963  0.14470410 -0.00000000       0.001
   0.19786963  0.15232011 -0.00000000       0.001
   0.19786963  0.15993612 -0.00000000       0.001
   0.19786963  0.16755212 -0.00000000       0.001
   0.19786963  0.17516813 -0.00000000       0.001
   0.19786963  0.18278413 -0.00000000       0.001
   0.19786963  0.19040014 -0.00000000       0.001
   0.20446528  0.04188803 -0.00000000       0.001
   0.20446528  0.04950404 -0.00000000       0.001
   0.20446528  0.05712004 -0.00000000       0.001
   0.20446528  0.06473605 -0.00000000       0.001
   0.20446528  0.07235205 -0.00000000       0.001
   0.20446528  0.07996806 -0.00000000       0.001
[...]
     18      -0.8074      0.00000
     19      -0.0206      0.00000
     20       0.7370      0.00000

 k-point  1155 :       0.7000    0.0800    0.0000
  band No.  band energies     occupation 
      1     -21.8915      1.00000
      2     -21.8711      1.00000
      3     -13.9670      1.00000
      4      -8.8972      1.00000
      5      -8.4573      1.00000
      6      -8.1668      1.00000
      7      -7.8062      1.00000
      8      -7.7129      1.00000
      9      -7.1557      1.00000
     10      -6.1817      1.00000
     11      -5.0790      1.00000
     12      -4.7529      1.00000
     13      -2.7235      0.00000
     14      -1.9304      0.00000
     15      -1.6460      0.00000
     16      -1.1501      0.00000
     17      -0.9453      0.00000
     18      -0.8175      0.00000
     19      -0.0199      0.00000
     20       0.7044      0.00000

 k-point  1156 :       0.7000    0.1000    0.0000
  band No.  band energies     occupation 
      1     -21.8973      1.00000
      2     -21.8761      1.00000
      3     -13.9841      1.00000
      4      -8.8629      1.00000
      5      -8.4691      1.00000
      6      -8.2113      1.00000
      7      -7.7959      1.00000
      8      -7.7301      1.00000
      9      -7.1115      1.00000
     10      -6.1244      1.00000
     11      -5.1653      1.00000
     12      -4.7136      1.00000
     13      -2.6949      0.00000
     14      -1.9108      0.00000
     15      -1.6341      0.00000
     16      -1.2096      0.00000
     17      -0.9353      0.00000
     18      -0.8279      0.00000
     19      -0.0208      0.00000
     20       0.6833      0.00000

 k-point  1157 :       0.7000    0.1200    0.0000
  band No.  band energies     occupation 
      1     -21.9013      1.00000
      2     -21.8795      1.00000
      3     -13.9955      1.00000
      4      -8.8345      1.00000
      5      -8.4775      1.00000
      6      -8.2477      1.00000
      7      -7.7849      1.00000
      8      -7.7450      1.00000
      9      -7.0813      1.00000
     10      -6.0711      1.00000
     11      -5.2408      1.00000
     12      -4.6846      1.00000
     13      -2.6786      0.00000
     14      -1.8848      0.00000
     15      -1.6238      0.00000
     16      -1.2625      0.00000
     17      -0.9266      0.00000
     18      -0.8370      0.00000
     19      -0.0222      0.00000
     20       0.6709      0.00000

 k-point  1158 :       0.7000    0.1400    0.0000
  band No.  band energies     occupation 
      1     -21.9032      1.00000
      2     -21.8811      1.00000
      3     -14.0012      1.00000
      4      -8.8181      1.00000
      5      -8.4819      1.00000
      6      -8.2687      1.00000
      7      -7.7742      1.00000
      8      -7.7573      1.00000
      9      -7.0662      1.00000
     10      -6.0371      1.00000
     11      -5.2865      1.00000
     12      -4.6692      1.00000
     13      -2.6717      0.00000
     14      -1.8660      0.00000
     15      -1.6174      0.00000
     16      -1.2951      0.00000
     17      -0.9213      0.00000
     18      -0.8426      0.00000
     19      -0.0232      0.00000
     20       0.6652      0.00000

 k-point  1159 :       0.7000    0.1600    0.0000
  band No.  band energies     occupation 
      1     -21.9032      1.00000
      2     -21.8811      1.00000
      3     -14.0012      1.00000
      4      -8.8181      1.00000
      5      -8.4819      1.00000
      6      -8.2687      1.00000
      7      -7.7742      1.00000
      8      -7.7573      1.00000
      9      -7.0662      1.00000
     10      -6.0371      1.00000
     11      -5.2865      1.00000
     12      -4.6692      1.00000
     13      -2.6717      0.00000
     14      -1.8660      0.00000
     15      -1.6174      0.00000
     16      -1.2951      0.00000
     17      -0.9213      0.00000
     18      -0.8426      0.00000
     19      -0.0232      0.00000
     20       0.6652      0.00000

 k-point  1160 :       0.7000    0.1800    0.0000
  band No.  band energies     occupation 
      1     -21.9013      1.00000
      2     -21.8795      1.00000
      3     -13.9955      1.00000
      4      -8.8345      1.00000
      5      -8.4775      1.00000
      6      -8.2477      1.00000
      7      -7.7849      1.00000
      8      -7.7450      1.00000
      9      -7.0813      1.00000
     10      -6.0711      1.00000
     11      -5.2408      1.00000
     12      -4.6846      1.00000
     13      -2.6786      0.00000
     14      -1.8848      0.00000
     15      -1.6238      0.00000
     16      -1.2625      0.00000
     17      -0.9266      0.00000
     18      -0.8370      0.00000
     19      -0.0222      0.00000
     20       0.6709      0.00000

 k-point  1161 :       0.7000    0.2000    0.0000
  band No.  band energies     occupation 
      1     -21.8973      1.00000
      2     -21.8761      1.00000
      3     -13.9841      1.00000
      4      -8.8629      1.00000
      5      -8.4691      1.00000
      6      -8.2113      1.00000
      7      -7.7959      1.00000
      8      -7.7301      1.00000
      9      -7.1115      1.00000
     10      -6.1244      1.00000
     11      -5.1653      1.00000
     12      -4.7136      1.00000
     13      -2.6949      0.00000
     14      -1.9108      0.00000
     15      -1.6341      0.00000
     16      -1.2096      0.00000
     17      -0.9353      0.00000
     18      -0.8279      0.00000
     19      -0.0208      0.00000
     20       0.6833      0.00000


--------------------------------------------------------------------------------------------------------


 soft charge-density along one line, spin component           1
         0         1         2         3         4         5         6         7         8         9
 total charge-density along one line
 
 soft charge-density along one line, spin component           2
         0         1         2         3         4         5         6         7         8         9
 total charge-density along one line
 
 pseudopotential strength for first ion, spin component:           1
 -7.293  -0.000   0.000  -0.026  -0.000  -7.948  -0.000   0.000
 -0.000  -7.304   0.000  -0.000  -0.026  -0.000  -7.961   0.000
  0.000   0.000  -7.275  -0.000  -0.000   0.000   0.000  -7.928
 -0.026  -0.000  -0.000  -7.304  -0.000  -0.030  -0.000  -0.000
 -0.000  -0.026  -0.000  -0.000  -7.293  -0.000  -0.030  -0.000
 -7.948  -0.000   0.000  -0.030  -0.000  -8.598  -0.000   0.000
 -0.000  -7.961   0.000  -0.000  -0.030  -0.000  -8.614   0.000
  0.000   0.000  -7.928  -0.000  -0.000   0.000   0.000  -8.576
 -0.030  -0.000  -0.000  -7.961  -0.000  -0.034  -0.000  -0.000
 -0.000  -0.030  -0.000  -0.000  -7.948  -0.000  -0.034  -0.000
  0.000  -0.000  -0.000   0.000  -0.000   0.000  -0.000   0.000
 -0.000   0.000  -0.001  -0.000   0.000  -0.000   0.000  -0.002
  0.000  -0.025   0.000   0.000   0.001   0.000  -0.030   0.000
  0.000  -0.000  -0.031   0.000  -0.000   0.000  -0.000  -0.037
  0.001   0.000  -0.000  -0.025   0.000   0.001   0.000  -0.000
 pseudopotential strength for first ion, spin component:           2
 -7.293  -0.000   0.000  -0.026  -0.000  -7.948  -0.000   0.000
 -0.000  -7.304   0.000  -0.000  -0.026  -0.000  -7.961   0.000
  0.000   0.000  -7.275  -0.000  -0.000   0.000   0.000  -7.928
 -0.026  -0.000  -0.000  -7.304  -0.000  -0.030  -0.000  -0.000
 -0.000  -0.026  -0.000  -0.000  -7.293  -0.000  -0.030  -0.000
 -7.948  -0.000   0.000  -0.030  -0.000  -8.598  -0.000   0.000
 -0.000  -7.961   0.000  -0.000  -0.030  -0.000  -8.614   0.000
  0.000   0.000  -7.928  -0.000  -0.000   0.000   0.000  -8.576
 -0.030  -0.000  -0.000  -7.961  -0.000  -0.034  -0.000  -0.000
 -0.000  -0.030  -0.000  -0.000  -7.948  -0.000  -0.034  -0.000
  0.000  -0.000  -0.000   0.000  -0.000   0.000  -0.000   0.000
 -0.000   0.000  -0.001  -0.000   0.000  -0.000   0.000  -0.002
  0.000  -0.025   0.000   0.000   0.001   0.000  -0.030   0.000
  0.000  -0.000  -0.031   0.000  -0.000   0.000  -0.000  -0.037
  0.001   0.000  -0.000  -0.025   0.000   0.001   0.000  -0.000
 total augmentation occupancy for first ion, spin component:           1
  0.600   0.000   0.000   0.000   0.000   0.000   0.000   0.000   0.000   0.000   0.000   0.000   0.000   0.000   0.000
  0.000   0.600   0.000   0.000   0.000   0.000   0.000   0.000   0.000   0.000   0.000   0.000   0.000   0.000   0.000
  0.000   0.000   0.600   0.000   0.000   0.000   0.000   0.000   0.000   0.000   0.000   0.000   0.000   0.000   0.000
  0.000   0.000   0.000   0.600   0.000   0.000   0.000   0.000   0.000   0.000   0.000   0.000   0.000   0.000   0.000
  0.000   0.000   0.000   0.000   0.600   0.000   0.000   0.000   0.000   0.000   0.000   0.000   0.000   0.000   0.000
  0.000   0.000   0.000   0.000   0.000   0.000   0.000   0.000   0.000   0.000   0.000   0.000   0.000   0.000   0.000
  0.000   0.000   0.000   0.000   0.000   0.000   0.000   0.000   0.000   0.000   0.000   0.000   0.000   0.000   0.000
  0.000   0.000   0.000   0.000   0.000   0.000   0.000   0.000   0.000   0.000   0.000   0.000   0.000   0.000   0.000
  0.000   0.000   0.000   0.000   0.000   0.000   0.000   0.000   0.000   0.000   0.000   0.000   0.000   0.000   0.000
  0.000   0.000   0.000   0.000   0.000   0.000   0.000   0.000   0.000   0.000   0.000   0.000   0.000   0.000   0.000
  0.000   0.000   0.000   0.000   0.000   0.000   0.000   0.000   0.000   0.000   1.000   0.000   0.000   0.000   0.000
  0.000   0.000   0.000   0.000   0.000   0.000   0.000   0.000   0.000   0.000   0.000   0.000   0.000   0.000   0.000
  0.000   0.000   0.000   0.000   0.000   0.000   0.000   0.000   0.000   0.000   0.000   0.000   0.000   0.000   0.000
  0.000   0.000   0.000   0.000   0.000   0.000   0.000   0.000   0.000   0.000   0.000   0.000   0.000   0.000   0.000
  0.000   0.000   0.000   0.000   0.000   0.000   0.000   0.000   0.000   0.000   0.000   0.000   0.000   0.000   0.000
 total augmentation occupancy for first ion, spin component:           2
  0.150   0.000   0.000   0.000   0.000   0.000   0.000   0.000   0.000   0.000   0.000   0.000   0.000   0.000   0.000
  0.000   0.150   0.000   0.000   0.000   0.000   0.000   0.000   0.000   0.000   0.000   0.000   0.000   0.000   0.000
  0.000   0.000   0.150   0.000   0.000   0.000   0.000   0.000   0.000   0.000   0.000   0.000   0.000   0.000   0.000
  0.000   0.000   0.000   0.150   0.000   0.000   0.000   0.000   0.000   0.000   0.000   0.000   0.000   0.000   0.000
  0.000   0.000   0.000   0.000   0.150   0.000   0.000   0.000   0.000   0.000   0.000   0.000   0.000   0.000   0.000
  0.000   0.000   0.000   0.000   0.000   0.000   0.000   0.000   0.000   0.000   0.000   0.000   0.000   0.000   0.000
  0.000   0.000   0.000   0.000   0.000   0.000   0.000   0.000   0.000   0.000   0.000   0.000   0.000   0.000   0.000
  0.000   0.000   0.000   0.000   0.000   0.000   0.000   0.000   0.000   0.000   0.000   0.000   0.000   0.000   0.000
  0.000   0.000   0.000   0.000   0.000   0.000   0.000   0.000   0.000   0.000   0.000   0.000   0.000   0.000   0.000
  0.000   0.000   0.000   0.000   0.000   0.000   0.000   0.000   0.000   0.000   0.000   0.000   0.000   0.000   0.000
  0.000   0.000   0.000   0.000   0.000   0.000   0.000   0.000   0.000   0.000   0.250   0.000   0.000   0.000   0.000
  0.000   0.000   0.000   0.000   0.000   0.000   0.000   0.000   0.000   0.000   0.000   0.000   0.000   0.000   0.000
  0.000   0.000   0.000   0.000   0.000   0.000   0.000   0.000   0.000   0.000   0.000   0.000   0.000   0.000   0.000
  0.000   0.000   0.000   0.000   0.000   0.000   0.000   0.000   0.000   0.000   0.000   0.000   0.000   0.000   0.000
  0.000   0.000   0.000   0.000   0.000   0.000   0.000   0.000   0.000   0.000   0.000   0.000   0.000   0.000   0.000


------------------------ aborting loop because EDIFF is reached ----------------------------------------


 


 total charge     
 
# of ion     s       p       d       tot
----------------------------------------
  1        0.443   1.156   2.476   4.074
  2        0.443   1.156   2.476   4.074
  3        0.903   1.589   0.000   2.492
  4        1.592   3.439   0.000   5.031
  5        1.592   3.439   0.000   5.031
------------------------------------------------
tot        4.972  10.778   4.951  20.702
 


 magnetization (x)
 
# of ion     s       p       d       tot
----------------------------------------
  1        0.000   0.000   0.000   0.000
  2        0.000   0.000   0.000   0.000
  3       -0.000   0.000   0.000  -0.000
  4       -0.000  -0.000   0.000  -0.000
  5       -0.000  -0.000   0.000  -0.000
------------------------------------------------
tot       -0.000   0.000   0.000   0.000
 
    CHARGE:  cpu time    2.61: real time    2.61
    FORLOC:  cpu time    0.00: real time    0.00
    FORNL :  cpu time    2.26: real time    2.26
    STRESS:  cpu time    5.18: real time    5.21
    FORCOR:  cpu time    0.04: real time    0.04
    FORHAR:  cpu time    0.01: real time    0.01
    OFIELD:  cpu time    0.00: real time    0.00

  DFT-D2 method for vdW energy calculation
  -------------------------------------------------------------------

  Parameters of vdW forcefield:
         C6(Jnm^6/mol)     R0(A)
   -----------------------------
   Ti      10.800          1.562
   C        1.750          1.452
   O        0.700          1.342

  IVDW =  10
  VDW_RADIUS =    50.000 A
  VDW_S6 =     0.750
  VDW_SR =     1.000
  VDW_D =    20.000
  LVDW_EWALD = F

  Number of pair interactions contributing to vdW energy:   37779
  Edisp (eV):   -0.91287
    FORVDW:  cpu time    0.01: real time    0.01

  FORCE on cell =-STRESS in cart. coord.  units (eV):
  Direction    XX          YY          ZZ          XY          YZ          ZX
  --------------------------------------------------------------------------------------
  Alpha Z    29.30373    29.30373    29.30373
  Ewald    7468.58465  7468.58466 -8208.10782     0.00002    -0.00000     0.00001
  Hartree  7646.26760  7646.26760 -7452.61707     0.00000    -0.00000     0.00000
  E(xc)    -107.42373  -107.42373  -107.39175    -0.00000     0.00000    -0.00000
  Local  -15384.36789-15384.36801 15379.00069    -0.00011     0.00000    -0.00001
  n-local   -45.85873   -44.53916   -46.76703    -0.66826     4.20511     6.34127
  augment    22.80686    22.80691    23.46947     0.00004     0.00001    -0.00001
  Kinetic   364.76972   379.11606   385.23622   -11.92719     2.87508     4.57839
  Fock        0.00000     0.00000     0.00000     0.00000     0.00000     0.00000
  vdW        -0.14368    -0.14368    -0.03417     0.00000     0.00000    -0.00000
  -------------------------------------------------------------------------------------
  Total       1.77145     1.77145     2.09227    -0.00000    -0.00000     0.00000
  in kB      14.25688    14.25688    16.83889    -0.00000    -0.00000     0.00000
  external pressure =       15.12 kB  Pullay stress =        0.00 kB


 VOLUME and BASIS-vectors are now :
 -----------------------------------------------------------------------------
  energy-cutoff  :      500.00
  volume of cell :      199.07
      direct lattice vectors                 reciprocal lattice vectors
     3.032299640  0.000000000  0.000000000     0.329782712  0.190400138 -0.000000000
    -1.516149820  2.626048520  0.000000000    -0.000000000  0.380800276 -0.000000000
     0.000000000  0.000000000 25.000000000     0.000000000  0.000000000  0.040000000

  length of vectors
     3.032299640  3.032299640 25.000000000     0.380800276  0.380800276  0.040000000


 FORCES acting on ions
    electron-ion (+dipol)            ewald-force                    non-local-force                 convergence-correction
 -----------------------------------------------------------------------------------------------
   0.109E-04 0.224E-05 -.298E+03   -.971E-05 0.141E-05 0.296E+03   0.165E-15 -.580E-16 -.396E+00   -.906E-04 0.541E-04 0.166E+01
   -.451E-06 0.562E-05 0.298E+03   0.698E-05 -.347E-05 -.296E+03   -.165E-15 0.580E-16 0.396E+00   0.919E-04 -.531E-04 -.166E+01
   -.662E-06 -.499E-06 0.669E-11   0.329E-05 0.249E-05 -.142E-12   -.161E-23 0.983E-23 0.000E+00   -.150E-05 -.113E-05 0.475E-10
   -.145E-03 -.398E-04 0.842E+03   -.758E-05 0.192E-05 -.865E+03   0.696E-15 0.137E-14 0.192E+02   -.935E-03 0.603E-03 0.235E+01
   -.131E-04 -.797E-04 -.842E+03   0.701E-05 -.235E-05 0.865E+03   -.654E-15 -.137E-14 -.192E+02   0.101E-02 -.543E-03 -.235E+01
 -----------------------------------------------------------------------------------------------
   -.149E-03 -.112E-03 0.321E-10   0.529E-14 -.166E-13 -.114E-12   0.416E-16 0.187E-23 0.000E+00   0.783E-04 0.591E-04 0.812E-10
 
 
 POSITION                                       TOTAL-FORCE (eV/Angst)
 -----------------------------------------------------------------------------------
      1.51615      0.87535     13.80913        -0.000000     -0.000000     -1.003939
      0.00000      1.75070     11.19087         0.000000      0.000000      1.003939
      0.00000      0.00000     12.50000         0.000000      0.000000      0.000000
      1.51615      0.87535     10.27234        -0.000000     -0.000000     -1.197402
      0.00000      1.75070     14.72766         0.000000      0.000000      1.197402
 -----------------------------------------------------------------------------------
    total drift:                               -0.000070     -0.000053      0.000000


--------------------------------------------------------------------------------------------------------



  FREE ENERGIE OF THE ION-ELECTRON SYSTEM (eV)
  ---------------------------------------------------
  free  energy   TOTEN  =       -45.69025264 eV

  energy  without entropy=      -45.69025264  energy(sigma->0) =      -45.69025264
 


--------------------------------------------------------------------------------------------------------


    POTLOK:  cpu time    0.06: real time    0.06


--------------------------------------------------------------------------------------------------------


     LOOP+:  cpu time  406.44: real time  406.63
    4ORBIT:  cpu time    0.00: real time    0.00
 


 total charge     
 
# of ion     s       p       d       tot
----------------------------------------
  1        0.443   1.156   2.476   4.074
  2        0.443   1.156   2.476   4.074
  3        0.903   1.589   0.000   2.492
  4        1.592   3.439   0.000   5.031
  5        1.592   3.439   0.000   5.031
------------------------------------------------
tot        4.972  10.778   4.951  20.702
 


 magnetization (x)
 
# of ion     s       p       d       tot
----------------------------------------
  1        0.000   0.000   0.000   0.000
  2        0.000   0.000   0.000   0.000
  3       -0.000   0.000   0.000  -0.000
  4       -0.000  -0.000   0.000  -0.000
  5       -0.000  -0.000   0.000  -0.000
------------------------------------------------
tot       -0.000   0.000   0.000   0.000
 

 total amount of memory used by VASP on root node   184971. kBytes
========================================================================

   base      :      30000. kBytes
   nonl-proj :     103673. kBytes
   fftplans  :        606. kBytes
   grid      :       1631. kBytes
   one-center:         21. kBytes
   wavefun   :      49040. kBytes
 
  
  
 General timing and accounting informations for this job:
 ========================================================
  
                  Total CPU time used (sec):      472.956
                            User time (sec):      458.662
                          System time (sec):       14.294
                         Elapsed time (sec):      476.740
  
                   Maximum memory used (kb):      264028.
                   Average memory used (kb):           0.
  
                          Minor page faults:        39743
                          Major page faults:           13
                 Voluntary context switches:         5837
